# vtk DataFile Version 2.0
Pressure Field Data 
ASCII 
DATASET UNSTRUCTURED_GRID 

POINTS 1089 float 

    0.0000000000000000E+00     0.0000000000000000E+00     0.0000000000000000E+00 
    1.0000000000000000E+00     0.0000000000000000E+00     0.0000000000000000E+00 
    1.0000000000000000E+00     1.0000000000000000E+00     0.0000000000000000E+00 
    0.0000000000000000E+00     1.0000000000000000E+00     0.0000000000000000E+00 
    3.1249999999941821E-02     0.0000000000000000E+00     0.0000000000000000E+00 
    6.2499999999872928E-02     0.0000000000000000E+00     0.0000000000000000E+00 
    9.3749999999823030E-02     0.0000000000000000E+00     0.0000000000000000E+00 
    1.2499999999977310E-01     0.0000000000000000E+00     0.0000000000000000E+00 
    1.5624999999968331E-01     0.0000000000000000E+00     0.0000000000000000E+00 
    1.8749999999959341E-01     0.0000000000000000E+00     0.0000000000000000E+00 
    2.1874999999950220E-01     0.0000000000000000E+00     0.0000000000000000E+00 
    2.4999999999941089E-01     0.0000000000000000E+00     0.0000000000000000E+00 
    2.8124999999931971E-01     0.0000000000000000E+00     0.0000000000000000E+00 
    3.1249999999922851E-01     0.0000000000000000E+00     0.0000000000000000E+00 
    3.4374999999913730E-01     0.0000000000000000E+00     0.0000000000000000E+00 
    3.7499999999904610E-01     0.0000000000000000E+00     0.0000000000000000E+00 
    4.0624999999895478E-01     0.0000000000000000E+00     0.0000000000000000E+00 
    4.3749999999886358E-01     0.0000000000000000E+00     0.0000000000000000E+00 
    4.6874999999877792E-01     0.0000000000000000E+00     0.0000000000000000E+00 
    4.9999999999869210E-01     0.0000000000000000E+00     0.0000000000000000E+00 
    5.3124999999876910E-01     0.0000000000000000E+00     0.0000000000000000E+00 
    5.6249999999884603E-01     0.0000000000000000E+00     0.0000000000000000E+00 
    5.9374999999892841E-01     0.0000000000000000E+00     0.0000000000000000E+00 
    6.2499999999901090E-01     0.0000000000000000E+00     0.0000000000000000E+00 
    6.5624999999909328E-01     0.0000000000000000E+00     0.0000000000000000E+00 
    6.8749999999917577E-01     0.0000000000000000E+00     0.0000000000000000E+00 
    7.1874999999925815E-01     0.0000000000000000E+00     0.0000000000000000E+00 
    7.4999999999934064E-01     0.0000000000000000E+00     0.0000000000000000E+00 
    7.8124999999942302E-01     0.0000000000000000E+00     0.0000000000000000E+00 
    8.1249999999950551E-01     0.0000000000000000E+00     0.0000000000000000E+00 
    8.4374999999958789E-01     0.0000000000000000E+00     0.0000000000000000E+00 
    8.7499999999967026E-01     0.0000000000000000E+00     0.0000000000000000E+00 
    9.0624999999975264E-01     0.0000000000000000E+00     0.0000000000000000E+00 
    9.3749999999983513E-01     0.0000000000000000E+00     0.0000000000000000E+00 
    9.6874999999991751E-01     0.0000000000000000E+00     0.0000000000000000E+00 
    1.0000000000000000E+00     3.1249999999941821E-02     0.0000000000000000E+00 
    1.0000000000000000E+00     6.2499999999872928E-02     0.0000000000000000E+00 
    1.0000000000000000E+00     9.3749999999823030E-02     0.0000000000000000E+00 
    1.0000000000000000E+00     1.2499999999977310E-01     0.0000000000000000E+00 
    1.0000000000000000E+00     1.5624999999968331E-01     0.0000000000000000E+00 
    1.0000000000000000E+00     1.8749999999959341E-01     0.0000000000000000E+00 
    1.0000000000000000E+00     2.1874999999950220E-01     0.0000000000000000E+00 
    1.0000000000000000E+00     2.4999999999941089E-01     0.0000000000000000E+00 
    1.0000000000000000E+00     2.8124999999931971E-01     0.0000000000000000E+00 
    1.0000000000000000E+00     3.1249999999922851E-01     0.0000000000000000E+00 
    1.0000000000000000E+00     3.4374999999913730E-01     0.0000000000000000E+00 
    1.0000000000000000E+00     3.7499999999904610E-01     0.0000000000000000E+00 
    1.0000000000000000E+00     4.0624999999895478E-01     0.0000000000000000E+00 
    1.0000000000000000E+00     4.3749999999886358E-01     0.0000000000000000E+00 
    1.0000000000000000E+00     4.6874999999877792E-01     0.0000000000000000E+00 
    1.0000000000000000E+00     4.9999999999869210E-01     0.0000000000000000E+00 
    1.0000000000000000E+00     5.3124999999876910E-01     0.0000000000000000E+00 
    1.0000000000000000E+00     5.6249999999884603E-01     0.0000000000000000E+00 
    1.0000000000000000E+00     5.9374999999892841E-01     0.0000000000000000E+00 
    1.0000000000000000E+00     6.2499999999901090E-01     0.0000000000000000E+00 
    1.0000000000000000E+00     6.5624999999909328E-01     0.0000000000000000E+00 
    1.0000000000000000E+00     6.8749999999917577E-01     0.0000000000000000E+00 
    1.0000000000000000E+00     7.1874999999925815E-01     0.0000000000000000E+00 
    1.0000000000000000E+00     7.4999999999934064E-01     0.0000000000000000E+00 
    1.0000000000000000E+00     7.8124999999942302E-01     0.0000000000000000E+00 
    1.0000000000000000E+00     8.1249999999950551E-01     0.0000000000000000E+00 
    1.0000000000000000E+00     8.4374999999958789E-01     0.0000000000000000E+00 
    1.0000000000000000E+00     8.7499999999967026E-01     0.0000000000000000E+00 
    1.0000000000000000E+00     9.0624999999975264E-01     0.0000000000000000E+00 
    1.0000000000000000E+00     9.3749999999983513E-01     0.0000000000000000E+00 
    1.0000000000000000E+00     9.6874999999991751E-01     0.0000000000000000E+00 
    9.6874999999986700E-01     1.0000000000000000E+00     0.0000000000000000E+00 
    9.3749999999973976E-01     1.0000000000000000E+00     0.0000000000000000E+00 
    9.0624999999967670E-01     1.0000000000000000E+00     0.0000000000000000E+00 
    8.7499999999950118E-01     1.0000000000000000E+00     0.0000000000000000E+00 
    8.4374999999971556E-01     1.0000000000000000E+00     0.0000000000000000E+00 
    8.1249999999991318E-01     1.0000000000000000E+00     0.0000000000000000E+00 
    7.8125000000010270E-01     1.0000000000000000E+00     0.0000000000000000E+00 
    7.5000000000034706E-01     1.0000000000000000E+00     0.0000000000000000E+00 
    7.1875000000056688E-01     1.0000000000000000E+00     0.0000000000000000E+00 
    6.8750000000078049E-01     1.0000000000000000E+00     0.0000000000000000E+00 
    6.5625000000097422E-01     1.0000000000000000E+00     0.0000000000000000E+00 
    6.2500000000121403E-01     1.0000000000000000E+00     0.0000000000000000E+00 
    5.9375000000151579E-01     1.0000000000000000E+00     0.0000000000000000E+00 
    5.6250000000164757E-01     1.0000000000000000E+00     0.0000000000000000E+00 
    5.3125000000182365E-01     1.0000000000000000E+00     0.0000000000000000E+00 
    5.0000000000205946E-01     1.0000000000000000E+00     0.0000000000000000E+00 
    4.6875000000194023E-01     1.0000000000000000E+00     0.0000000000000000E+00 
    4.3750000000182099E-01     1.0000000000000000E+00     0.0000000000000000E+00 
    4.0625000000169093E-01     1.0000000000000000E+00     0.0000000000000000E+00 
    3.7500000000156092E-01     1.0000000000000000E+00     0.0000000000000000E+00 
    3.4375000000143069E-01     1.0000000000000000E+00     0.0000000000000000E+00 
    3.1250000000130068E-01     1.0000000000000000E+00     0.0000000000000000E+00 
    2.8125000000117062E-01     1.0000000000000000E+00     0.0000000000000000E+00 
    2.5000000000104050E-01     1.0000000000000000E+00     0.0000000000000000E+00 
    2.1875000000091041E-01     1.0000000000000000E+00     0.0000000000000000E+00 
    1.8750000000078040E-01     1.0000000000000000E+00     0.0000000000000000E+00 
    1.5625000000065031E-01     1.0000000000000000E+00     0.0000000000000000E+00 
    1.2500000000052031E-01     1.0000000000000000E+00     0.0000000000000000E+00 
    9.3750000000390132E-02     1.0000000000000000E+00     0.0000000000000000E+00 
    6.2500000000260125E-02     1.0000000000000000E+00     0.0000000000000000E+00 
    3.1250000000130007E-02     1.0000000000000000E+00     0.0000000000000000E+00 
    0.0000000000000000E+00     9.6874999999986700E-01     0.0000000000000000E+00 
    0.0000000000000000E+00     9.3749999999973976E-01     0.0000000000000000E+00 
    0.0000000000000000E+00     9.0624999999967670E-01     0.0000000000000000E+00 
    0.0000000000000000E+00     8.7499999999950118E-01     0.0000000000000000E+00 
    0.0000000000000000E+00     8.4374999999971556E-01     0.0000000000000000E+00 
    0.0000000000000000E+00     8.1249999999991318E-01     0.0000000000000000E+00 
    0.0000000000000000E+00     7.8125000000010270E-01     0.0000000000000000E+00 
    0.0000000000000000E+00     7.5000000000034706E-01     0.0000000000000000E+00 
    0.0000000000000000E+00     7.1875000000056688E-01     0.0000000000000000E+00 
    0.0000000000000000E+00     6.8750000000078049E-01     0.0000000000000000E+00 
    0.0000000000000000E+00     6.5625000000097422E-01     0.0000000000000000E+00 
    0.0000000000000000E+00     6.2500000000121403E-01     0.0000000000000000E+00 
    0.0000000000000000E+00     5.9375000000151579E-01     0.0000000000000000E+00 
    0.0000000000000000E+00     5.6250000000164757E-01     0.0000000000000000E+00 
    0.0000000000000000E+00     5.3125000000182365E-01     0.0000000000000000E+00 
    0.0000000000000000E+00     5.0000000000205946E-01     0.0000000000000000E+00 
    0.0000000000000000E+00     4.6875000000194023E-01     0.0000000000000000E+00 
    0.0000000000000000E+00     4.3750000000182099E-01     0.0000000000000000E+00 
    0.0000000000000000E+00     4.0625000000169093E-01     0.0000000000000000E+00 
    0.0000000000000000E+00     3.7500000000156092E-01     0.0000000000000000E+00 
    0.0000000000000000E+00     3.4375000000143069E-01     0.0000000000000000E+00 
    0.0000000000000000E+00     3.1250000000130068E-01     0.0000000000000000E+00 
    0.0000000000000000E+00     2.8125000000117062E-01     0.0000000000000000E+00 
[...]
CELL_DATA 1024 
SCALARS Pressure float 1 
LOOKUP_TABLE default 

   -2.0243460529198032E-01 
   -2.0007939865915994E-01 
   -1.9443019025033645E-01 
   -1.9267912348267557E-01 
   -1.8565340782640830E-01 
   -1.8894196363467919E-01 
   -1.8419710177237619E-01 
   -1.8028853583953508E-01 
   -1.7607672074088893E-01 
   -1.8024397564754691E-01 
   -1.7701745147465431E-01 
   -1.7274798654576826E-01 
   -1.7014323010509524E-01 
   -1.7444138213271049E-01 
   -1.7244986378573768E-01 
   -1.6815952461758016E-01 
   -1.6672448731605810E-01 
   -1.7098869085588739E-01 
   -1.7001280053846676E-01 
   -1.6578325903314989E-01 
   -1.6529131130009361E-01 
   -1.6948352140972053E-01 
   -1.6936639761195435E-01 
   -1.6521020276299861E-01 
   -1.6550508492902619E-01 
   -1.6962966586494477E-01 
   -1.7024331712100219E-01 
   -1.6614342446792393E-01 
   -1.6709458632863941E-01 
   -1.7117860975163879E-01 
   -1.7240782545936251E-01 
   -1.6832986085043000E-01 
   -1.6982238122737545E-01 
   -1.7390399110941757E-01 
   -1.7564029466064160E-01 
   -1.7154636986279584E-01 
   -1.7347548323630008E-01 
   -1.7758907551125802E-01 
   -1.7972055483183452E-01 
   -1.7558066265089389E-01 
   -1.7782842401041707E-01 
   -1.8200172441918916E-01 
   -1.8439580833275432E-01 
   -1.8018041989716535E-01 
   -1.8259432782875007E-01 
   -1.8686238812369690E-01 
   -1.8935785631381355E-01 
   -1.8502524290738145E-01 
   -1.8742650506294747E-01 
   -1.9183566318894985E-01 
   -1.9424598984782915E-01 
   -1.8974948001064815E-01 
   -1.9194281323180637E-01 
   -1.9653483944192898E-01 
   -1.9864270795224578E-01 
   -1.9395251984149708E-01 
   -1.9572492455553628E-01 
   -2.0050250412467974E-01 
   -2.0203428391102510E-01 
   -1.9721601028044888E-01 
   -1.9841692137587119E-01 
   -2.0312721017953503E-01 
   -2.0357562327898415E-01 
   -1.9945579959148341E-01 
   -2.0001107160660914E-01 
   -2.0096627176127721E-01 
   -1.9732274346978329E-01 
   -1.9579709792737351E-01 
   -1.9140501201449134E-01 
   -1.9358122270555256E-01 
   -1.9001870834920945E-01 
   -1.8732368592262286E-01 
   -1.8374851828742567E-01 
   -1.8680874420217813E-01 
   -1.8403733153512286E-01 
   -1.8073269673657491E-01 
   -1.7827165202167197E-01 
   -1.8173691253618976E-01 
   -1.7991123723309921E-01 
   -1.7634035689222888E-01 
   -1.7490812073591136E-01 
   -1.7854976066311321E-01 
   -1.7763514567402588E-01 
   -1.7394388871011923E-01 
   -1.7341777760015709E-01 
   -1.7714691991431805E-01 
   -1.7706314901015680E-01 
   -1.7330121926325806E-01 
   -1.7356667661431829E-01 
   -1.7736114123154617E-01 
   -1.7801770592624502E-01 
   -1.7418731448573951E-01 
   -1.7513674204927637E-01 
   -1.7900921188513300E-01 
   -1.8031153611627104E-01 
   -1.7638880263375883E-01 
   -1.7791730999637823E-01 
   -1.8189990839021761E-01 
   -1.8374862585581325E-01 
   -1.7969561620165739E-01 
   -1.8169595900852487E-01 
   -1.8583062807212714E-01 
   -1.8811697418038595E-01 
   -1.8388866249577854E-01 
   -1.8624138290064704E-01 
   -1.9057631558362750E-01 
   -1.9317446520573089E-01 
   -1.8871860288274980E-01 
   -1.9128144025904278E-01 
   -1.9587410279449061E-01 
   -1.9863455091561297E-01 
   -1.9388762725417191E-01 
   -1.9649137801979585E-01 
   -2.0141146802996882E-01 
   -2.0415627487974367E-01 
   -1.9904287027407486E-01 
   -2.0148714987364075E-01 
   -2.0681513429612416E-01 
   -2.0932726115821518E-01 
   -2.0376221513437121E-01 
   -2.0579556034393948E-01 
   -2.1162215753191532E-01 
   -2.1361504714283711E-01 
   -2.0749713340795231E-01 
   -2.0874380378275698E-01 
   -2.1519967250138899E-01 
   -2.1623939797463140E-01 
   -2.0934582092260820E-01 
   -2.0245284487891499E-01 
   -2.0426977158574530E-01 
   -2.0102439320615575E-01 
   -1.9907032526052795E-01 
   -1.9570904928991237E-01 
   -1.9789390950759325E-01 
   -1.9495632473033858E-01 
   -1.9251500949053016E-01 
   -1.8960955064993193E-01 
   -1.9229047802938357E-01 
   -1.8995835901179858E-01 
   -1.8707203908523856E-01 
   -1.8494595316194323E-01 
   -1.8800137152020302E-01 
   -1.8644307706812410E-01 
   -1.8324988078782606E-01 
   -1.8198672573934377E-01 
   -1.8529360323871413E-01 
   -1.8455362418775076E-01 
   -1.8114994161154738E-01 
   -1.8072734847040836E-01 
   -1.8421733862168507E-01 
   -1.8427449626514517E-01 
   -1.8070333441504885E-01 
   -1.8106007289398093E-01 
   -1.8471169925070713E-01 
   -1.8551320184812273E-01 
   -1.8177816952654582E-01 
   -1.8283698151124481E-01 
   -1.8666137629342330E-01 
   -1.8813695356117405E-01 
   -1.8421473643337646E-01 
   -1.8588850525983541E-01 
   -1.8991910287554642E-01 
   -1.9198538624689945E-01 
   -1.8783404967932130E-01 
   -1.9002555873810481E-01 
   -1.9431161420129586E-01 
   -1.9687163036239799E-01 
   -1.9243530645350959E-01 
   -1.9503328189141741E-01 
   -1.9963705884305535E-01 
   -2.0257704660695794E-01 
   -1.9778684519266534E-01 
   -2.0066043361956246E-01 
   -2.0565801842983600E-01 
   -2.0884343545729775E-01 
   -2.0361528858273101E-01 
   -2.0660912378782034E-01 
   -2.1209352225547048E-01 
   -2.1536491489595688E-01 
   -2.0959562901095743E-01 
   -2.1252370320569230E-01 
   -2.1861019173314655E-01 
   -2.2177728227289081E-01 
   -2.1533631675055737E-01 
   -2.1796891431108431E-01 
   -2.2480882680721267E-01 
   -2.2764174451035579E-01 
   -2.2034738050655103E-01 
   -2.2238612816988079E-01 
   -2.3020770394076673E-01 
   -2.3243608297886442E-01 
   -2.2398867115694382E-01 
   -2.0633827590412374E-01 
   -2.0863636179784079E-01 
   -2.0552539791835708E-01 
   -2.0317424409622095E-01 
   -2.0019192883729126E-01 
   -2.0264389978229350E-01 
   -2.0001858593243937E-01 
   -1.9743528461646181E-01 
   -1.9495501468288867E-01 
   -1.9768281983610234E-01 
   -1.9566937852470792E-01 
   -1.9279656147442509E-01 
   -1.9099465871854321E-01 
   -1.9400588658651874E-01 
   -1.9271290050163697E-01 
   -1.8957248121756187E-01 
   -1.8854302191327346E-01 
   -1.9180376317194978E-01 
   -1.9128534677560374E-01 
   -1.8791112653399994E-01 
   -1.8767541423713080E-01 
   -1.9115908492704148E-01 
   -1.9142197267429070E-01 
   -1.8782981247627462E-01 
   -1.8836467767564744E-01 
   -1.9206740008576031E-01 
   -1.9308578759681400E-01 
   -1.8926756483382073E-01 
   -1.9052372678017981E-01 
   -1.9446503811175936E-01 
   -1.9619083416080954E-01 
   -1.9211641184928013E-01 
   -1.9402701012401211E-01 
   -1.9824681076166145E-01 
   -2.0061462886988954E-01 
   -1.9623508347772478E-01 
   -1.9871830639014673E-01 
   -2.0327397228481076E-01 
   -2.0620248861850812E-01 
   -2.0145234238556700E-01 
   -2.0441068128415338E-01 
   -2.0937569455529659E-01 
   -2.1276686422910537E-01 
   -2.0756446060597536E-01 
   -2.1088228659108588E-01 
   -2.1634691591444419E-01 
   -2.2008430711300236E-01 
   -2.1433005805211430E-01 
   -2.1787078464286683E-01 
   -2.2394494449692953E-01 
   -2.2789211808373047E-01 
   -2.2146438912591482E-01 
   -2.2506749766546211E-01 
   -2.3188648341259588E-01 
   -2.3588614626413643E-01 
   -2.2863326044682791E-01 
   -2.3211132002535553E-01 
   -2.3984695677651222E-01 
   -2.4372319760240149E-01 
   -2.3544818281661142E-01 
   -2.3858848263593996E-01 
   -2.4746894747002374E-01 
   -2.5104046218928483E-01 
   -2.4147793850139140E-01 
   -2.1117084259933924E-01 
   -2.1396425670850680E-01 
   -2.1091707785641631E-01 
   -2.0809687215925551E-01 
   -2.0528756939317180E-01 
   -2.0816154153925673E-01 
   -2.0571058561520122E-01 
   -2.0276068265374056E-01 
   -2.0053913651668323E-01 
   -2.0358087728480856E-01 
   -2.0179039380311503E-01 
   -1.9864684402488450E-01 
   -1.9710543674217673E-01 
   -2.0035621961939609E-01 
   -1.9929298244509311E-01 
   -1.9593235611694440E-01 
   -1.9514011172905946E-01 
   -1.9861198497187607E-01 
   -1.9832089075640227E-01 
   -1.9473630416461346E-01 
   -1.9472404239775315E-01 
   -1.9842377103364930E-01 
   -1.9892134061671177E-01 
   -1.9510249884220962E-01 
   -1.9586745418179802E-01 
   -1.9981126332037100E-01 
   -2.0108845231089698E-01 
   -1.9701176208085100E-01 
   -1.9852571050319492E-01 
   -2.0274532787784613E-01 
   -2.0477201719494856E-01 
   -2.0039728025930312E-01 
   -2.0261231183035563E-01 
   -2.0715649418998891E-01 
   -2.0988466484909804E-01 
   -2.0515459510245551E-01 
   -2.0800589767575034E-01 
   -2.1294040717377419E-01 
   -2.1630557724719213E-01 
   -2.1114594780415330E-01 
   -2.1455238824543482E-01 
   -2.1995999425087279E-01 
   -2.2388141805719686E-01 
   -2.1820071700454460E-01 
   -2.2206422979619994E-01 
   -2.2804553334151767E-01 
   -2.3242595448420306E-01 
   -2.2611397762436194E-01 
   -2.3031875288013259E-01 
   -2.3699426686533742E-01 
   -2.4172012393205519E-01 
   -2.3464512168973220E-01 
   -2.3905753146219066E-01 
   -2.4657142687602088E-01 
   -2.5151462539916408E-01 
   -2.4351854310818108E-01 
   -2.4798926743849822E-01 
   -2.5651519235901832E-01 
   -2.6153833699488122E-01 
   -2.5243012086705657E-01 
   -2.5680204235126280E-01 
   -2.6655001936549944E-01 
   -2.7151829105629327E-01 
   -2.6106829188077252E-01 
   -2.1704824558521785E-01 
   -2.2045998138887929E-01 
   -2.1744645234171694E-01 
   -2.1402067321494592E-01 
   -2.1130617941725355E-01 
   -2.1476354349547674E-01 
   -2.1242011276155348E-01 
   -2.0891506665537241E-01 
   -2.0686025168824457E-01 
   -2.1042684599634856E-01 
   -2.0879539259821636E-01 
   -2.0515584254896960E-01 
   -2.0381568332399014E-01 
   -2.0753740117857286E-01 
   -2.0666365046679047E-01 
   -2.0285216975081527E-01 
   -2.0227545174559786E-01 
   -2.0618338367590050E-01 
   -2.0610387130616326E-01 
   -2.0209300272258957E-01 
   -2.0230946970297056E-01 
   -2.0643017458875648E-01 
   -2.0716505833437779E-01 
   -2.0292670488637929E-01 
   -2.0394389388752132E-01 
   -2.0830899970147299E-01 
   -2.0986024793032748E-01 
   -2.0535771934042293E-01 
   -2.0716252107840408E-01 
   -2.1181490221322521E-01 
   -2.1416698651545035E-01 
   -2.0935043163403061E-01 
   -2.1191147805333813E-01 
   -2.1690850971458051E-01 
   -2.2002950665660095E-01 
   -2.1483364905192984E-01 
   -2.1810293170794243E-01 
   -2.2351806101113325E-01 
   -2.2736031465761555E-01 
   -2.2170332527965850E-01 
   -2.2561684204460003E-01 
   -2.3154047117581586E-01 
   -2.3604080314024653E-01 
   -2.2982350666466322E-01 
   -2.3430136674631255E-01 
   -2.4084167453636499E-01 
   -2.4592159092845836E-01 
   -2.3902652833303858E-01 
   -2.4397323157939194E-01 
   -2.5125729125568136E-01 
   -2.5682389653543891E-01 
   -2.4911398446112548E-01 
   -2.5441977648424496E-01 
   -2.6259513232832710E-01 
   -2.6854364310518880E-01 
   -2.5986039971790836E-01 
   -2.6540490928424809E-01 
   -2.7464141632345002E-01 
   -2.8086032963552887E-01 
   -2.7102225588290352E-01 
   -2.7668211180528263E-01 
   -2.8717282254971038E-01 
   -2.9355267014074093E-01 
   -2.8235587930653760E-01 
   -2.2424014265082862E-01 
   -2.2843172746281898E-01 
   -2.2543274876779110E-01 
   -2.2123598429919028E-01 
   -2.1857709170820347E-01 
   -2.2279138260816328E-01 
   -2.2051538834196840E-01 
   -2.1627156447182980E-01 
   -2.1432880006343222E-01 
   -2.1861347871848860E-01 
   -2.1709495337006579E-01 
   -2.1275894584842622E-01 
   -2.1157224790353224E-01 
   -2.1596924590014352E-01 
   -2.1524545834975994E-01 
   -2.1077841779820686E-01 
   -2.1038609965906907E-01 
   -2.1493194099207483E-01 
   -2.1503595063434600E-01 
   -2.1040247357540842E-01 
   -2.1083299460826416E-01 
   -2.1556339712148140E-01 
   -2.1651867089261093E-01 
   -2.1168124491363624E-01 
   -2.1294886813251965E-01 
   -2.1790453530131282E-01 
   -2.1972206457261104E-01 
   -2.1463555579704263E-01 
   -2.1673906074706759E-01 
   -2.2197060956766304E-01 
   -2.2464777701122718E-01 
   -2.1925521937743378E-01 
   -2.2217797121799573E-01 
   -2.2774941214312061E-01 
   -2.3126957909584911E-01 
   -2.2549937015013699E-01 
   -2.2920958632367899E-01 
   -2.3520053730819657E-01 
   -2.3953271583275318E-01 
   -2.3329690165840783E-01 
   -2.3774770486185831E-01 
   -2.4425469046483539E-01 
   -2.4935317120262754E-01 
   -2.4254649430607680E-01 
   -2.4767589896862188E-01 
   -2.5481300960121078E-01 
   -2.6061723701311884E-01 
   -2.5311672900890181E-01 
   -2.5884806845058578E-01 
   -2.6674714537436556E-01 
   -2.7318242191184305E-01 
   -2.6484742285586566E-01 
   -2.7109093465974560E-01 
   -2.7990134768391817E-01 
   -2.8688106694359139E-01 
   -2.7755367758529215E-01 
   -2.8421003850008297E-01 
   -2.9409792962060793E-01 
   -3.0152790246331473E-01 
   -2.9103418898985467E-01 
   -2.9800063833757717E-01 
   -3.0914703543171262E-01 
   -3.1693195915185429E-01 
   -3.0508484345913889E-01 
   -2.3307934648000000E-01 
   -2.3822880294871296E-01 
   -2.3522841129653674E-01 
   -2.3008159497528069E-01 
   -2.2745184801611990E-01 
   -2.3260464180830187E-01 
   -2.3036530424934198E-01 
   -2.2519779581757390E-01 
   -2.2332786821083983E-01 
   -2.2851882568988313E-01 
   -2.2707405074428774E-01 
   -2.2185097356380373E-01 
   -2.2077617127219443E-01 
   -2.2603999344033257E-01 
   -2.2542556845516890E-01 
   -2.2011232275706727E-01 
   -2.1986776013283632E-01 
   -2.2523932757819665E-01 
   -2.2548922048939399E-01 
   -2.2004999879359058E-01 
   -2.2066550580849101E-01 
   -2.2618239030019158E-01 
   -2.2732500627045829E-01 
   -2.2171952410284748E-01 
   -2.2321594456659180E-01 
   -2.2892213010010701E-01 
   -2.3097760861869227E-01 
   -2.2515721443967640E-01 
   -2.2754426968534333E-01 
   -2.3349398432671151E-01 
   -2.3647241556753237E-01 
   -2.3037648049957313E-01 
   -2.3365160170511121E-01 
   -2.3991259959917208E-01 
   -2.4381269406541226E-01 
   -2.3736572290668367E-01 
   -2.4151321656204386E-01 
   -2.4816923504715196E-01 
   -2.5297705282164035E-01 
   -2.4608668534499087E-01 
   -2.5107691322355652E-01 
   -2.5822918953419938E-01 
   -2.6391682604402505E-01 
   -2.5647282744062627E-01 
   -2.6226148091181128E-01 
   -2.7002922801536056E-01 
   -2.7655372353454044E-01 
   -2.6842806621627124E-01 
   -2.7495597304162428E-01 
   -2.8347572564705370E-01 
   -2.9077881262738925E-01 
   -2.8182690029419000E-01 
   -2.8902103175436000E-01 
   -2.9844487593281110E-01 
   -3.0645434029545432E-01 
   -2.9651727991632509E-01 
   -3.0429359652605298E-01 
   -3.1478645244118986E-01 
   -3.2341962544529917E-01 
   -3.1232734072436957E-01 
   -3.2059568746523764E-01 
   -3.3233181656723704E-01 
   -3.4150090992304827E-01 
   -3.2907605129025430E-01 
   -2.4392685302948375E-01 
   -2.5022108406218235E-01 
   -2.4720365949466827E-01 
   -2.4091993527197111E-01 
   -2.3829655473515604E-01 
   -2.4457498208694139E-01 
   -2.4234350431765847E-01 
   -2.3606478329188244E-01 
   -2.3423325184157989E-01 
   -2.4051822414409585E-01 
   -2.3910853618521588E-01 
   -2.3281098498701217E-01 
   -2.3180720278767455E-01 
   -2.3812406377148593E-01 
   -2.3757448349911997E-01 
   -2.3123110718369810E-01 
   -2.3109166980170934E-01 
   -2.3746935257486715E-01 
   -2.3781794653196486E-01 
   -2.3139743400483079E-01 
   -2.3215633877031991E-01 
   -2.3862911152066854E-01 
   -2.3991113198503419E-01 
   -2.3337556669612780E-01 
   -2.3506141411683615E-01 
   -2.4167161162931899E-01 
   -2.4391736344714371E-01 
   -2.3721917840010293E-01 
   -2.3985305603455623E-01 
   -2.4665430333438565E-01 
   -2.4988734140802141E-01 
   -2.4296604492201121E-01 
   -2.4655984509810944E-01 
   -2.5362026553907074E-01 
   -2.5785561272167684E-01 
   -2.5063475370054250E-01 
   -2.5518955222569117E-01 
   -2.6259452573010555E-01 
   -2.6783659509146102E-01 
   -2.6022138686295204E-01 
   -2.6572564589120939E-01 
   -2.7357968976653657E-01 
   -2.7981978407315389E-01 
   -2.7169584164094263E-01 
   -2.7812350812522574E-01 
   -2.8655079313856452E-01 
   -2.9376443407312913E-01 
   -2.8499812867942081E-01 
   -2.9230711012248228E-01 
   -3.0145013423119754E-01 
   -3.0959500997381345E-01 
   -3.0003582011908675E-01 
   -3.0816770153949147E-01 
   -3.1818393746675155E-01 
   -3.2719972944568892E-01 
   -3.1668447087930351E-01 
   -3.2556639718129449E-01 
   -3.3662341765673481E-01 
   -3.4643462106426465E-01 
   -3.3479264472866477E-01 
   -3.4434165006796741E-01 
   -3.5661195935281459E-01 
   -3.6713345724357238E-01 
   -3.5419149590074989E-01 
   -2.5715987418690972E-01 
   -2.6479241237254603E-01 
   -2.6174134782289382E-01 
   -2.5412780539106367E-01 
   -2.5148793268166358E-01 
   -2.5908407028048497E-01 
   -2.5683012830490010E-01 
   -2.4924919906055135E-01 
   -2.4742111008266318E-01 
   -2.5498966931983014E-01 
   -2.5357328215500408E-01 
   -2.4601358752903005E-01 
   -2.4503681787469400E-01 
   -2.5259185115693955E-01 
   -2.5205642695904262E-01 
   -2.4450110354179866E-01 
   -2.4441672219265809E-01 
   -2.5197811412551763E-01 
   -2.5236797322345050E-01 
   -2.4479379681088331E-01 
   -2.4564217707277047E-01 
   -2.5323693360724225E-01 
   -2.5459571254829910E-01 
   -2.4697133052167020E-01 
   -2.4879024035875966E-01 
   -2.5645473584444506E-01 
   -2.5882405451810936E-01 
   -2.5110730532086323E-01 
   -2.5393023619139499E-01 
   -2.6171325165822024E-01 
   -2.6513133296558650E-01 
   -2.5726594303156342E-01 
   -2.6112040727768987E-01 
   -2.6908659426528725E-01 
   -2.7358645934367126E-01 
   -2.6549853350750852E-01 
   -2.7040397706634400E-01 
   -2.7863728221741624E-01 
   -2.8424410971156533E-01 
   -2.7583894605400472E-01 
   -2.8180397963437537E-01 
   -2.9041040348262670E-01 
   -2.9713772590926024E-01 
   -2.8829770944637578E-01 
   -2.9531661711981100E-01 
   -3.0442540206408547E-01 
   -3.1227018042083049E-01 
   -3.0285480822748523E-01 
   -3.1090383049427650E-01 
   -3.2066592739025862E-01 
   -3.2960340312353797E-01 
   -3.1945256987132026E-01 
   -3.2848725926218797E-01 
   -3.3907017408977808E-01 
   -3.4905071528891146E-01 
   -3.3799162766163454E-01 
   -3.4794719917807143E-01 
   -3.5952673414043501E-01 
   -3.7047770431670934E-01 
   -3.5833372166272037E-01 
   -3.6912966903053313E-01 
   -3.8188153544239684E-01 
   -3.9371524379561512E-01 
   -3.8031273269062515E-01 
   -2.7316876877408958E-01 
   -2.8234001472845349E-01 
   -2.7923672425484458E-01 
   -2.7009408119970646E-01 
   -2.6741278108104749E-01 
   -2.7652426305610950E-01 
   -2.7421384378151803E-01 
   -2.6513515869920318E-01 
   -2.6327214742856420E-01 
   -2.7231735901282905E-01 
   -2.7084714759786704E-01 
   -2.6183513895394167E-01 
   -2.6083583400707772E-01 
   -2.6981583502335188E-01 
   -2.6923623927600221E-01 
   -2.6028612950443086E-01 
   -2.6019803536537567E-01 
   -2.6912132361613550E-01 
   -2.6948417731350660E-01 
   -2.6058361185939238E-01 
   -2.6145491861812453E-01 
   -2.7033800895018917E-01 
   -2.7169614090195748E-01 
   -2.6282396758063648E-01 
   -2.6470267309417017E-01 
   -2.7357199653955594E-01 
   -2.7597907317443682E-01 
   -2.6710279279050875E-01 
   -2.7003585268813862E-01 
   -2.7893089396227255E-01 
   -2.8244093118426261E-01 
   -2.7351304938609045E-01 
   -2.7754512143986282E-01 
   -2.8652249187831180E-01 
   -2.9118855502081359E-01 
   -2.8214218132038776E-01 
   -2.8731349911999904E-01 
   -2.9645154776733484E-01 
   -3.0232304723652997E-01 
   -2.9306722990089745E-01 
   -2.9941007901066169E-01 
   -3.0881339489263532E-01 
   -3.1593121417030806E-01 
   -3.0634690478769994E-01 
   -3.1388026699524596E-01 
   -3.2368283061379916E-01 
   -3.3207160999257068E-01 
   -3.2200994310916153E-01 
   -3.3073245357502551E-01 
   -3.4109725603648577E-01 
   -3.5075514640525324E-01 
   -3.4004065982435211E-01 
   -3.4992352020558987E-01 
   -3.6103582946886847E-01 
   -3.7192484260233460E-01 
   -3.6036609898501037E-01 
   -3.7134990705590620E-01 
   -3.8340301892476725E-01 
   -3.9544738574262889E-01 
   -3.8285359411950465E-01 
   -3.9485390632710160E-01 
   -4.0803259129692576E-01 
   -4.2113254051510740E-01 
   -4.0732669623283824E-01 
   -2.9235840252435574E-01 
   -3.0327763136428337E-01 
   -3.0010017352131119E-01 
   -2.8922106724205660E-01 
   -2.8646963431276684E-01 
   -2.9730105754469893E-01 
   -2.9489428444316385E-01 