# vtk DataFile Version 2.0
Pressure Field Data 
ASCII 
DATASET UNSTRUCTURED_GRID 

POINTS 25 float 

    0.0000000000000000E+00     0.0000000000000000E+00     0.0000000000000000E+00 
    1.0000000000000000E+00     0.0000000000000000E+00     0.0000000000000000E+00 
    1.0000000000000000E+00     1.0000000000000000E+00     0.0000000000000000E+00 
    0.0000000000000000E+00     1.0000000000000000E+00     0.0000000000000000E+00 
    2.5000000000000000E-01     0.0000000000000000E+00     0.0000000000000000E+00 
    5.0000000000000000E-01     0.0000000000000000E+00     0.0000000000000000E+00 
    7.5000000000000000E-01     0.0000000000000000E+00     0.0000000000000000E+00 
    1.0000000000000000E+00     2.5000000000000000E-01     0.0000000000000000E+00 
    1.0000000000000000E+00     5.0000000000000000E-01     0.0000000000000000E+00 
    1.0000000000000000E+00     7.5000000000000000E-01     0.0000000000000000E+00 
    7.5000000000000000E-01     1.0000000000000000E+00     0.0000000000000000E+00 
    5.0000000000000000E-01     1.0000000000000000E+00     0.0000000000000000E+00 
    2.5000000000000000E-01     1.0000000000000000E+00     0.0000000000000000E+00 
    0.0000000000000000E+00     7.5000000000000000E-01     0.0000000000000000E+00 
    0.0000000000000000E+00     5.0000000000000000E-01     0.0000000000000000E+00 
    0.0000000000000000E+00     2.5000000000000000E-01     0.0000000000000000E+00 
    2.5000000000000000E-01     7.5000000000000000E-01     0.0000000000000000E+00 
    5.0000000000000000E-01     7.5000000000000000E-01     0.0000000000000000E+00 
    7.5000000000000000E-01     7.5000000000000000E-01     0.0000000000000000E+00 
    2.5000000000000000E-01     5.0000000000000000E-01     0.0000000000000000E+00 
    5.0000000000000000E-01     5.0000000000000000E-01     0.0000000000000000E+00 
    7.5000000000000000E-01     5.0000000000000000E-01     0.0000000000000000E+00 
    2.5000000000000000E-01     2.5000000000000000E-01     0.0000000000000000E+00 
    5.0000000000000000E-01     2.5000000000000000E-01     0.0000000000000000E+00 
    7.5000000000000000E-01     2.5000000000000000E-01     0.0000000000000000E+00 

CELLS 16 80 

4 3 13 16 12 
4 12 16 17 11 
4 11 17 18 10 
4 10 18 9 2 
4 13 14 19 16 
4 16 19 20 17 
4 17 20 21 18 
4 18 21 8 9 
4 14 15 22 19 
4 19 22 23 20 
4 20 23 24 21 
4 21 24 7 8 
4 15 0 4 22 
4 22 4 5 23 
4 23 5 6 24 
4 24 6 1 7 

CELL_TYPES 16 

7 
7 
7 
7 
7 
7 
7 
7 
7 
7 
7 
7 
7 
7 
7 
7 

CELL_DATA 16 
SCALARS Pressure float 1 
LOOKUP_TABLE default 

    2.2388537110397118E+00 
    2.2427502274176039E+00 
    2.2542278867309058E+00 
    2.2617941474683079E+00 
    4.7100748818937648E+00 
    4.7377407695188962E+00 
    4.7607504683342627E+00 
    4.7903555699256417E+00 
    6.0846444300743547E+00 
    6.1142495316657337E+00 
    6.1372592304810993E+00 
    6.1649251181062334E+00 
    6.3632058525316886E+00 
    6.3707721132690915E+00 
    6.3822497725823926E+00 
    6.3861462889602860E+00 

