# vtk DataFile Version 2.0
Pressure Field Data 
ASCII 
DATASET UNSTRUCTURED_GRID 

POINTS 169 float 

    0.0000000000000000E+00     0.0000000000000000E+00     0.0000000000000000E+00 
    1.0000000000000000E+00     0.0000000000000000E+00     0.0000000000000000E+00 
    1.0000000000000000E+00     1.0000000000000000E+00     0.0000000000000000E+00 
    0.0000000000000000E+00     1.0000000000000000E+00     0.0000000000000000E+00 
    5.0000000000000000E-01     0.0000000000000000E+00     0.0000000000000000E+00 
    5.0000000000000000E-01     1.0000000000000000E+00     0.0000000000000000E+00 
    1.0000000000000000E+00     8.0000000000000004E-01     0.0000000000000000E+00 
    8.2999999999999996E-01     8.0000000000000004E-01     0.0000000000000000E+00 
    6.6000000000000003E-01     2.0000000000000001E-01     0.0000000000000000E+00 
    3.4000000000000002E-01     8.0000000000000004E-01     0.0000000000000000E+00 
    1.7000000000000001E-01     2.0000000000000001E-01     0.0000000000000000E+00 
    0.0000000000000000E+00     2.0000000000000001E-01     0.0000000000000000E+00 
    1.7000000000000001E-01     0.0000000000000000E+00     0.0000000000000000E+00 
    1.7000000000000001E-01     1.0000000000000000E+00     0.0000000000000000E+00 
    3.4000000000000002E-01     1.0000000000000000E+00     0.0000000000000000E+00 
    3.4000000000000002E-01     0.0000000000000000E+00     0.0000000000000000E+00 
    6.6000000000000003E-01     0.0000000000000000E+00     0.0000000000000000E+00 
    6.6000000000000003E-01     1.0000000000000000E+00     0.0000000000000000E+00 
    8.2999999999999996E-01     1.0000000000000000E+00     0.0000000000000000E+00 
    8.2999999999999996E-01     0.0000000000000000E+00     0.0000000000000000E+00 
    5.0000000000000000E-01     5.0000000000000000E-01     0.0000000000000000E+00 
    8.4999999999781806E-02     0.0000000000000000E+00     0.0000000000000000E+00 
    2.5499999999978301E-01     0.0000000000000000E+00     0.0000000000000000E+00 
    4.1999999999977228E-01     0.0000000000000000E+00     0.0000000000000000E+00 
    5.7999999999984830E-01     0.0000000000000000E+00     0.0000000000000000E+00 
    7.4499999999969624E-01     0.0000000000000000E+00     0.0000000000000000E+00 
    9.1499999999980464E-01     0.0000000000000000E+00     0.0000000000000000E+00 
    1.0000000000000000E+00     1.3333333333306890E-01     0.0000000000000000E+00 
    1.0000000000000000E+00     2.6666666666600858E-01     0.0000000000000000E+00 
    1.0000000000000000E+00     3.9999999999894842E-01     0.0000000000000000E+00 
    1.0000000000000000E+00     5.3333333333261779E-01     0.0000000000000000E+00 
    1.0000000000000000E+00     6.6666666666631980E-01     0.0000000000000000E+00 
    1.0000000000000000E+00     8.3333333333322490E-01     0.0000000000000000E+00 
    1.0000000000000000E+00     8.6666666666642811E-01     0.0000000000000000E+00 
    1.0000000000000000E+00     8.9999999999982638E-01     0.0000000000000000E+00 
    1.0000000000000000E+00     9.3333333333322477E-01     0.0000000000000000E+00 
    1.0000000000000000E+00     9.6666666666660150E-01     0.0000000000000000E+00 
    9.1500000000028214E-01     1.0000000000000000E+00     0.0000000000000000E+00 
    7.4500000000030375E-01     1.0000000000000000E+00     0.0000000000000000E+00 
    5.8000000000019514E-01     1.0000000000000000E+00     0.0000000000000000E+00 
    4.2000000000019527E-01     1.0000000000000000E+00     0.0000000000000000E+00 
    2.5500000000020051E-01     1.0000000000000000E+00     0.0000000000000000E+00 
    8.5000000000214265E-02     1.0000000000000000E+00     0.0000000000000000E+00 
    0.0000000000000000E+00     8.6666666666703562E-01     0.0000000000000000E+00 
    0.0000000000000000E+00     7.3333333333407114E-01     0.0000000000000000E+00 
    0.0000000000000000E+00     6.0000000000108500E-01     0.0000000000000000E+00 
    0.0000000000000000E+00     4.6666666666741158E-01     0.0000000000000000E+00 
    0.0000000000000000E+00     3.3333333333369503E-01     0.0000000000000000E+00 
    0.0000000000000000E+00     1.6666666666675889E-01     0.0000000000000000E+00 
    0.0000000000000000E+00     1.3333333333351780E-01     0.0000000000000000E+00 
    0.0000000000000000E+00     1.0000000000027399E-01     0.0000000000000000E+00 
    0.0000000000000000E+00     6.6666666666852920E-02     0.0000000000000000E+00 
    0.0000000000000000E+00     3.3333333333423747E-02     0.0000000000000000E+00 
    1.7000000000000001E-01     3.3333333333267212E-02     0.0000000000000000E+00 
    1.7000000000000001E-01     6.6666666666502158E-02     0.0000000000000000E+00 
    1.7000000000000001E-01     9.9999999999737105E-02     0.0000000000000000E+00 
    1.7000000000000001E-01     1.3333333333315450E-01     0.0000000000000000E+00 
    1.7000000000000001E-01     1.6666666666658000E-01     0.0000000000000000E+00 
    1.7000000000000001E-01     3.3333333333306081E-01     0.0000000000000000E+00 
    1.7000000000000001E-01     4.6666666666598061E-01     0.0000000000000000E+00 
    1.7000000000000001E-01     5.9999999999894360E-01     0.0000000000000000E+00 
    1.7000000000000001E-01     7.3333333333261463E-01     0.0000000000000000E+00 
    1.7000000000000001E-01     8.6666666666630743E-01     0.0000000000000000E+00 
    3.4000000000000002E-01     1.3333333333306890E-01     0.0000000000000000E+00 
    3.4000000000000002E-01     2.6666666666600858E-01     0.0000000000000000E+00 
    3.4000000000000002E-01     3.9999999999894842E-01     0.0000000000000000E+00 
    3.4000000000000002E-01     5.3333333333261779E-01     0.0000000000000000E+00 
    3.4000000000000002E-01     6.6666666666631980E-01     0.0000000000000000E+00 
    3.4000000000000002E-01     8.3333333333322490E-01     0.0000000000000000E+00 
    3.4000000000000002E-01     8.6666666666642811E-01     0.0000000000000000E+00 
    3.4000000000000002E-01     8.9999999999982638E-01     0.0000000000000000E+00 
    3.4000000000000002E-01     9.3333333333322477E-01     0.0000000000000000E+00 
    3.4000000000000002E-01     9.6666666666660150E-01     0.0000000000000000E+00 
    5.0000000000000000E-01     8.3333333333160439E-02     0.0000000000000000E+00 
    5.0000000000000000E-01     1.6666666666625049E-01     0.0000000000000000E+00 
    5.0000000000000000E-01     2.4999999999934600E-01     0.0000000000000000E+00 
    5.0000000000000000E-01     3.3333333333289372E-01     0.0000000000000000E+00 
    5.0000000000000000E-01     4.1666666666644692E-01     0.0000000000000000E+00 
    5.0000000000000000E-01     5.8333333333333337E-01     0.0000000000000000E+00 
    5.0000000000000000E-01     6.6666666666666663E-01     0.0000000000000000E+00 
    5.0000000000000000E-01     7.5000000000000000E-01     0.0000000000000000E+00 
    5.0000000000000000E-01     8.3333333333333326E-01     0.0000000000000000E+00 
    5.0000000000000000E-01     9.1666666666666663E-01     0.0000000000000000E+00 
    6.6000000000000003E-01     3.3333333333267212E-02     0.0000000000000000E+00 
    6.6000000000000003E-01     6.6666666666502158E-02     0.0000000000000000E+00 
    6.6000000000000003E-01     9.9999999999737105E-02     0.0000000000000000E+00 
    6.6000000000000003E-01     1.3333333333315450E-01     0.0000000000000000E+00 
    6.6000000000000003E-01     1.6666666666658000E-01     0.0000000000000000E+00 
    6.6000000000000003E-01     3.3333333333306081E-01     0.0000000000000000E+00 
    6.6000000000000003E-01     4.6666666666598061E-01     0.0000000000000000E+00 
    6.6000000000000003E-01     5.9999999999894360E-01     0.0000000000000000E+00 
    6.6000000000000003E-01     7.3333333333261463E-01     0.0000000000000000E+00 
    6.6000000000000003E-01     8.6666666666630743E-01     0.0000000000000000E+00 
    8.2999999999999996E-01     1.3333333333306890E-01     0.0000000000000000E+00 
    8.2999999999999996E-01     2.6666666666600858E-01     0.0000000000000000E+00 
    8.2999999999999996E-01     3.9999999999894842E-01     0.0000000000000000E+00 
    8.2999999999999996E-01     5.3333333333261779E-01     0.0000000000000000E+00 
    8.2999999999999996E-01     6.6666666666631980E-01     0.0000000000000000E+00 
    8.2999999999999996E-01     8.3333333333322490E-01     0.0000000000000000E+00 
    8.2999999999999996E-01     8.6666666666642811E-01     0.0000000000000000E+00 
    8.2999999999999996E-01     8.9999999999982638E-01     0.0000000000000000E+00 
    8.2999999999999996E-01     9.3333333333322477E-01     0.0000000000000000E+00 
    8.2999999999999996E-01     9.6666666666660150E-01     0.0000000000000000E+00 
    8.4999999999781806E-02     2.0000000000000001E-01     0.0000000000000000E+00 
    2.5499999999977202E-01     4.9999999999919531E-01     0.0000000000000000E+00 
    4.1999999999987758E-01     6.5000000000022951E-01     0.0000000000000000E+00 
    5.7999999999983576E-01     3.5000000000030801E-01     0.0000000000000000E+00 
    7.4499999999976552E-01     4.9999999999917250E-01     0.0000000000000000E+00 
    9.1499999999980464E-01     8.0000000000000004E-01     0.0000000000000000E+00 
    8.4999999999781806E-02     3.3333333333345483E-02     0.0000000000000000E+00 
    8.4999999999781820E-02     6.6666666666677546E-02     0.0000000000000000E+00 
    8.4999999999781806E-02     1.0000000000000550E-01     0.0000000000000000E+00 
    8.4999999999781806E-02     1.3333333333333611E-01     0.0000000000000000E+00 
    8.4999999999781806E-02     1.6666666666666941E-01     0.0000000000000000E+00 
    2.5499999999978118E-01     8.3333333333033915E-02     0.0000000000000000E+00 
    2.5499999999977929E-01     1.6666666666598720E-01     0.0000000000000000E+00 
    2.5499999999977740E-01     2.4999999999894040E-01     0.0000000000000000E+00 
    2.5499999999977557E-01     3.3333333333234971E-01     0.0000000000000000E+00 
    2.5499999999977391E-01     4.1666666666577912E-01     0.0000000000000000E+00 
    4.1999999999978971E-01     1.0833333333315290E-01     0.0000000000000000E+00 
    4.1999999999980731E-01     2.1666666666620610E-01     0.0000000000000000E+00 
    4.1999999999982501E-01     3.2499999999926188E-01     0.0000000000000000E+00 
    4.1999999999984239E-01     4.3333333333290880E-01     0.0000000000000000E+00 
    4.1999999999985999E-01     5.4166666666657448E-01     0.0000000000000000E+00 
    5.7999999999984608E-01     5.8333333333265167E-02     0.0000000000000000E+00 
    5.7999999999984408E-01     1.1666666666647900E-01     0.0000000000000000E+00 
    5.7999999999984186E-01     1.7499999999969559E-01     0.0000000000000000E+00 
    5.7999999999983987E-01     2.3333333333322939E-01     0.0000000000000000E+00 
    5.7999999999983787E-01     2.9166666666677010E-01     0.0000000000000000E+00 
    7.4499999999970790E-01     8.3333333333030127E-02     0.0000000000000000E+00 
    7.4499999999971933E-01     1.6666666666597951E-01     0.0000000000000000E+00 
    7.4499999999973099E-01     2.4999999999892900E-01     0.0000000000000000E+00 
    7.4499999999974242E-01     3.3333333333233439E-01     0.0000000000000000E+00 
    7.4499999999975397E-01     4.1666666666576019E-01     0.0000000000000000E+00 
    9.1499999999980464E-01     1.3333333333306890E-01     0.0000000000000000E+00 
    9.1499999999980464E-01     2.6666666666600858E-01     0.0000000000000000E+00 
    9.1499999999980464E-01     3.9999999999894842E-01     0.0000000000000000E+00 
    9.1499999999980464E-01     5.3333333333261779E-01     0.0000000000000000E+00 
    9.1499999999980464E-01     6.6666666666631980E-01     0.0000000000000000E+00 
    8.4999999999853859E-02     3.3333333333337789E-01     0.0000000000000000E+00 
    8.4999999999925954E-02     4.6666666666669598E-01     0.0000000000000000E+00 
    8.4999999999998022E-02     6.0000000000001441E-01     0.0000000000000000E+00 
    8.5000000000070103E-02     7.3333333333334294E-01     0.0000000000000000E+00 
    8.5000000000142184E-02     8.6666666666667158E-01     0.0000000000000000E+00 
    2.5499999999984352E-01     5.8333333333247239E-01     0.0000000000000000E+00 
    2.5499999999991479E-01     6.6666666666566776E-01     0.0000000000000000E+00 
    2.5499999999998618E-01     7.4999999999898259E-01     0.0000000000000000E+00 
    2.5500000000005768E-01     8.3333333333265114E-01     0.0000000000000000E+00 
    2.5500000000012918E-01     9.1666666666632035E-01     0.0000000000000000E+00 
    4.1999999999993048E-01     7.0833333333347026E-01     0.0000000000000000E+00 
    4.1999999999998350E-01     7.6666666666670036E-01     0.0000000000000000E+00 
    4.2000000000003651E-01     8.2500000000002793E-01     0.0000000000000000E+00 
    4.2000000000008941E-01     8.8333333333335529E-01     0.0000000000000000E+00 
    4.2000000000014232E-01     9.4166666666667220E-01     0.0000000000000000E+00 
    5.7999999999989571E-01     4.5833333333345377E-01     0.0000000000000000E+00 
    5.7999999999995566E-01     5.6666666666652898E-01     0.0000000000000000E+00 
    5.8000000000001539E-01     6.7499999999962579E-01     0.0000000000000000E+00 
    5.8000000000007534E-01     7.8333333333307675E-01     0.0000000000000000E+00 
    5.8000000000013530E-01     8.9166666666653849E-01     0.0000000000000000E+00 
    7.4499999999985511E-01     5.8333333333245319E-01     0.0000000000000000E+00 
    7.4499999999994526E-01     6.6666666666565277E-01     0.0000000000000000E+00 
    7.4500000000003486E-01     7.4999999999897116E-01     0.0000000000000000E+00 
    7.4500000000012456E-01     8.3333333333264370E-01     0.0000000000000000E+00 
    7.4500000000021416E-01     9.1666666666631658E-01     0.0000000000000000E+00 
    9.1499999999988413E-01     8.3333333333322490E-01     0.0000000000000000E+00 
    9.1499999999996384E-01     8.6666666666642811E-01     0.0000000000000000E+00 
    9.1500000000004356E-01     8.9999999999982638E-01     0.0000000000000000E+00 
    9.1500000000012305E-01     9.3333333333322477E-01     0.0000000000000000E+00 
    9.1500000000020254E-01     9.6666666666660150E-01     0.0000000000000000E+00 

CELLS 288 1152 

3 0 21 109 
3 109 52 0 
3 52 109 110 
3 110 51 52 
3 51 110 111 
3 111 50 51 
3 50 111 112 
3 112 49 50 
3 49 112 113 
3 113 48 49 
3 48 113 103 
3 103 11 48 
3 21 12 53 
3 53 109 21 
3 109 53 54 
3 54 110 109 
3 110 54 55 
3 55 111 110 
3 111 55 56 
3 56 112 111 
3 112 56 57 
3 57 113 112 
3 113 57 10 
3 10 103 113 
3 12 22 114 
3 114 53 12 
3 53 114 115 
3 115 54 53 
3 54 115 116 
3 116 55 54 
3 55 116 117 
3 117 56 55 
3 56 117 118 
3 118 57 56 
3 57 118 104 
3 104 10 57 
3 22 15 63 
3 63 114 22 
3 114 63 64 
3 64 115 114 
3 115 64 65 
3 65 116 115 
3 116 65 66 
3 66 117 116 
3 117 66 67 
3 67 118 117 
3 118 67 9 
3 9 104 118 
3 15 23 119 
3 119 63 15 
3 63 119 120 
3 120 64 63 
3 64 120 121 
3 121 65 64 
3 65 121 122 
3 122 66 65 
3 66 122 123 
3 123 67 66 
3 67 123 105 
3 105 9 67 
3 23 4 73 
3 73 119 23 
3 119 73 74 
3 74 120 119 
3 120 74 75 
3 75 121 120 
3 121 75 76 
3 76 122 121 
3 122 76 77 
3 77 123 122 
3 123 77 20 
3 20 105 123 
3 4 24 124 
3 124 73 4 
3 73 124 125 
3 125 74 73 
3 74 125 126 
3 126 75 74 
3 75 126 127 
3 127 76 75 
3 76 127 128 
3 128 77 76 
3 77 128 106 
3 106 20 77 
3 24 16 83 
3 83 124 24 
3 124 83 84 
3 84 125 124 
3 125 84 85 
3 85 126 125 
3 126 85 86 
3 86 127 126 
3 127 86 87 
3 87 128 127 
3 128 87 8 
3 8 106 128 
3 16 25 129 
3 129 83 16 
3 83 129 130 
3 130 84 83 
3 84 130 131 
3 131 85 84 
3 85 131 132 
3 132 86 85 
3 86 132 133 
3 133 87 86 
3 87 133 107 
3 107 8 87 
3 25 19 93 
3 93 129 25 
3 129 93 94 
3 94 130 129 
3 130 94 95 
3 95 131 130 
3 131 95 96 
3 96 132 131 
3 132 96 97 
3 97 133 132 
3 133 97 7 
3 7 107 133 
3 19 26 134 
3 134 93 19 
3 93 134 135 
3 135 94 93 
3 94 135 136 
3 136 95 94 
3 95 136 137 
3 137 96 95 
3 96 137 138 
3 138 97 96 
3 97 138 108 
3 108 7 97 
3 26 1 27 
3 27 134 26 
3 134 27 28 
3 28 135 134 
3 135 28 29 
3 29 136 135 
3 136 29 30 
3 30 137 136 
3 137 30 31 
3 31 138 137 
3 138 31 6 
3 6 108 138 
3 11 103 139 
3 139 47 11 
3 47 139 140 
3 140 46 47 
3 46 140 141 
3 141 45 46 
3 45 141 142 
3 142 44 45 
3 44 142 143 
3 143 43 44 
3 43 143 42 
3 42 3 43 
3 103 10 58 
3 58 139 103 
3 139 58 59 
3 59 140 139 
3 140 59 60 
3 60 141 140 
3 141 60 61 
3 61 142 141 
3 142 61 62 
3 62 143 142 
3 143 62 13 
3 13 42 143 
3 10 104 144 
3 144 58 10 
3 58 144 145 
3 145 59 58 
3 59 145 146 
3 146 60 59 
3 60 146 147 
3 147 61 60 
3 61 147 148 
3 148 62 61 
3 62 148 41 
3 41 13 62 
3 104 9 68 
3 68 144 104 
3 144 68 69 
3 69 145 144 
3 145 69 70 
3 70 146 145 
3 146 70 71 
3 71 147 146 
3 147 71 72 
3 72 148 147 
3 148 72 14 
3 14 41 148 
3 9 105 149 
3 149 68 9 
3 68 149 150 
3 150 69 68 
3 69 150 151 
3 151 70 69 
3 70 151 152 
3 152 71 70 
3 71 152 153 
3 153 72 71 
3 72 153 40 
3 40 14 72 
3 105 20 78 
3 78 149 105 
3 149 78 79 
3 79 150 149 
3 150 79 80 
3 80 151 150 
3 151 80 81 
3 81 152 151 
3 152 81 82 
3 82 153 152 
3 153 82 5 
3 5 40 153 
3 20 106 154 
3 154 78 20 
3 78 154 155 
3 155 79 78 
3 79 155 156 
3 156 80 79 
3 80 156 157 
3 157 81 80 
3 81 157 158 
3 158 82 81 
3 82 158 39 
3 39 5 82 
3 106 8 88 
3 88 154 106 
3 154 88 89 
3 89 155 154 
3 155 89 90 
3 90 156 155 
3 156 90 91 
3 91 157 156 
3 157 91 92 
3 92 158 157 
3 158 92 17 
3 17 39 158 
3 8 107 159 
3 159 88 8 
3 88 159 160 
3 160 89 88 
3 89 160 161 
3 161 90 89 
3 90 161 162 
3 162 91 90 
3 91 162 163 
3 163 92 91 
3 92 163 38 
3 38 17 92 
3 107 7 98 
3 98 159 107 
3 159 98 99 
3 99 160 159 
3 160 99 100 
3 100 161 160 
3 161 100 101 
3 101 162 161 
3 162 101 102 
3 102 163 162 
3 163 102 18 
3 18 38 163 
3 7 108 164 
3 164 98 7 
3 98 164 165 
3 165 99 98 
3 99 165 166 
3 166 100 99 
3 100 166 167 
3 167 101 100 
3 101 167 168 
3 168 102 101 
3 102 168 37 
3 37 18 102 
3 108 6 32 
3 32 164 108 
3 164 32 33 
3 33 165 164 
3 165 33 34 
3 34 166 165 
3 166 34 35 
3 35 167 166 
3 167 35 36 
3 36 168 167 
3 168 36 2 
3 2 37 168 

CELL_TYPES 288 

5 
5 
5 
5 
5 
5 
5 
5 
5 
5 
5 
5 
5 
5 
5 
5 
5 
5 
5 
5 
5 
5 
5 
5 
5 
5 
5 
5 
5 
5 
5 
5 
5 
5 
5 
5 
5 
5 
5 
5 
5 
5 
5 
5 
5 
5 
5 
5 
5 
5 
5 
5 
5 
5 
5 
5 
5 
5 
5 
5 
5 
5 
5 
5 
5 
5 
5 
5 
5 
5 
5 
5 
5 
5 
5 
5 
5 
5 
5 
5 
5 
5 
5 
5 
5 
5 
5 
5 
5 
5 
5 
5 
5 
5 
5 
5 
5 
5 
5 
5 
5 
5 
5 
5 
5 
5 
5 
5 
5 
5 
5 
5 
5 
5 
5 
5 
5 
5 
5 
5 
5 
5 
5 
5 
5 
5 
5 
5 
5 
5 
5 
5 
5 
5 
5 
5 
5 
5 
5 
5 
5 
5 
5 
5 
5 
5 
5 
5 
5 
5 
5 
5 
5 
5 
5 
5 
5 
5 
5 
5 
5 
5 
5 
5 
5 
5 
5 
5 
5 
5 
5 
5 
5 
5 
5 
5 
5 
5 
5 
5 
5 
5 
5 
5 
5 
5 
5 
5 
5 
5 
5 
5 
5 
5 
5 
5 
5 
5 
5 
5 
5 
5 
5 
5 
5 
5 
5 
5 
5 
5 
5 
5 
5 
5 
5 
5 
5 
5 
5 
5 
5 
5 
5 
5 
5 
5 
5 
5 
5 
5 
5 
5 
5 
5 
5 
5 
5 
5 
5 
5 
5 
5 
5 
5 
5 
5 
5 
5 
5 
5 
5 
5 
5 
5 
5 
5 
5 
5 
5 
5 
5 
5 
5 
5 
5 
5 
5 
5 
5 
5 
5 
5 
5 
5 
5 
5 
5 
5 
5 
5 
5 
5 
5 
5 
5 
5 
5 
5 

CELL_DATA 288 
SCALARS Pressure float 1 
LOOKUP_TABLE default 

    4.3421582955628325E-03 
    7.1540972122162046E-03 
    2.7272860378010758E-02 
    1.8608042193420115E-02 
    5.0071080392564395E-02 
    2.9928794164142073E-02 
    7.2442388515083597E-02 
    4.0887340174539023E-02 
    9.3713024438157905E-02 
    5.1143703828714089E-02 
    1.1318999542630202E-01 
    6.0677521621333975E-02 
    1.5474851735218825E-02 
    2.9895305884685582E-02 
    7.1592210565732561E-02 
    7.4277521513192876E-02 
    1.2699636745315654E-01 
    1.1919424899739045E-01 
    1.8197447890250756E-01 
    1.6359532556754769E-01 
    2.3470719919716715E-01 
    2.0492804632622424E-01 
    2.8214239950951991E-01 
    2.3877010667541607E-01 
    6.0651201154829804E-02 
    8.1270361139175837E-02 
    2.0832754509687901E-01 
    1.8486706141402265E-01 
    3.4278600200442433E-01 
    2.8137879998038351E-01 
    4.5533404784799558E-01 
    3.6671369636998530E-01 
    5.4262329127079056E-01 
    4.3964468539736984E-01 
    6.0474748679639234E-01 
    4.9812932221105949E-01 
    1.1615380979080749E-01 
    1.7858537652034201E-01 
    4.0706662298207924E-01 
    4.0896294846300035E-01 
    6.2642509129691304E-01 
    5.8080675075675192E-01 
    7.4915373871333346E-01 
    6.8317665029094310E-01 
    7.7755447704853853E-01 
    7.2150039182857817E-01 
    7.2276163675633820E-01 
    7.1145256454289829E-01 
    1.0526380418547535E-01 
    2.2841729306423164E-01 
    4.3277052880065642E-01 
    5.4608440860311525E-01 
    6.9402882936223298E-01 
    7.6572845397382927E-01 
    8.5615988941400079E-01 
    8.6643907944571574E-01 
    9.0975505608217178E-01 
    8.5534610701387703E-01 
    8.6271754479587992E-01 
    7.4002354959159955E-01 
    8.4522282507146163E-02 
    1.9409094574634378E-01 
    3.6009725938285397E-01 
    4.7997344685559395E-01 
    6.0413316127031935E-01 
    7.1503397930424972E-01 
    7.9590881436169447E-01 
    8.7590045231163771E-01 
    9.1904843755975318E-01 
    9.5125285255913083E-01 
    9.6761736857410929E-01 
    9.4441148051965229E-01 
    5.8229801727505429E-02 
    1.4400824944376497E-01 
    2.5779691784810449E-01 
    3.6723483134553603E-01 
    4.4750301257755515E-01 
    5.7006201663468192E-01 
    6.1769291824864858E-01 
    7.4153042743189257E-01 
    7.6095554222481365E-01 
    8.6948242938510367E-01 
    8.6985919072095952E-01 
    9.4249697159085699E-01 
    3.0561227021933715E-02 
    8.6455588077115286E-02 
    1.4325812317743128E-01 
    2.2886515078481182E-01 
    2.5495815723363674E-01 
    3.6742614974068649E-01 
    3.6298600497008232E-01 
    5.0172193462072312E-01 
    4.6748382662153487E-01 
    6.0894266843273281E-01 
    5.5039432307478853E-01 
    7.3293998841585306E-01 
    6.3481630643484915E-02 
    9.2097758457441795E-02 
    2.0866526824134643E-01 
    2.0819510620675449E-01 
    3.4166252495900212E-01 
    3.1563251561077388E-01 
    4.5453829589913003E-01 
    4.1149470836047986E-01 
    5.5168397578402395E-01 
    4.9935715627982030E-01 
    6.2144349041621172E-01 
    5.7254788884865770E-01 
    7.8247526692220043E-02 
    1.3973452961128363E-01 
    2.6133978824675036E-01 
    3.0743830854859006E-01 
    4.0352618858275641E-01 
    4.3991581167695309E-01 
    4.9923713545456283E-01 
    5.3577915819345590E-01 
    5.4691911189894016E-01 
    5.9499565447378588E-01 
    5.4458301911702300E-01 
    6.2017907478512702E-01 
    4.9121190177274260E-02 
    1.1747819661173467E-01 
    1.7337999998562775E-01 
    2.5446968476520682E-01 
    2.6461360885807517E-01 
    3.5089648063515966E-01 
    3.1881029598675481E-01 
    4.0190313734481437E-01 
    3.3395050946645899E-01 
    4.0558251754103403E-01 
    3.0134623495444557E-01 
    3.4628752659513762E-01 
    1.6427548482967368E-02 
    5.5043051318626086E-02 
    5.1172082260587982E-02 
    1.0832676432244398E-01 
    7.3560706173205953E-02 
    1.4901043694347310E-01 
    8.6007434697805182E-02 
    1.6942504138013148E-01 
    8.7095849570858710E-02 
    1.6814588605066935E-01 
    7.5241032671298530E-02 
    1.4158359928996903E-01 
    1.4215662166724924E-01 
    7.3097727866148654E-02 
    1.7112497081391451E-01 
    8.5334719971396467E-02 
    1.7153425644702139E-01 
    8.3778968505199863E-02 
    1.4734167204835139E-01 
    7.0450377629995606E-02 
    1.0372888808714074E-01 
    4.7710540038443640E-02 
    4.2521632848269666E-02 
    1.7148672925145797E-02 
    3.4926213917727200E-01 
    3.0588278575708988E-01 
    4.1950453224854284E-01 
    3.4454492408074983E-01 
    4.1779977661285828E-01 
    3.2774335155652934E-01 
    3.5876449274418321E-01 
    2.6669995741955060E-01 
    2.5532359256245224E-01 
    1.7104501584398654E-01 
    1.1952718798637876E-01 
    4.6140389394748800E-02 
    6.3571356814342661E-01 
    5.5616900506992295E-01 
    6.1783129660128944E-01 
    5.6730887121936724E-01 
    5.5177361970226135E-01 
    5.1395692896679146E-01 
    4.4710090056810664E-01 
    4.0943828635068441E-01 
    3.0990660286811800E-01 
    2.6315683433116449E-01 
    1.4426259517858320E-01 
    8.0050867258379801E-02 
    6.1632782622222126E-01 
    6.6974600298235965E-01 
    5.2177463392516144E-01 
    5.7592847455480478E-01 
    4.2595364801393476E-01 
    4.6846892818209407E-01 
    3.2489401612479296E-01 
    3.4969252352874231E-01 
    2.1487169341271334E-01 
    2.1486611936938216E-01 
    9.6373052628371231E-02 
    6.6650209861826931E-02 
    7.5087517366478307E-01 
    6.1229001920046489E-01 
    6.6928744131590090E-01 
    4.9472273796457145E-01 
    5.2634318638481870E-01 
    3.7946177795748848E-01 
    3.8237619968518693E-01 
    2.6686906589377474E-01 
    2.3926037091157848E-01 
    1.5090307583056484E-01 
    9.2175225643011699E-02 
    3.3401231236658432E-02 
    9.4793659547791376E-01 
    8.7854821997027421E-01 
    8.7954394847945228E-01 
    7.8547432695148411E-01 
    7.6182507100277219E-01 
    6.4288636713823188E-01 
    5.9038891271684490E-01 
    4.6401527944731302E-01 
    3.8104994738774789E-01 
    2.6840559685960208E-01 
    1.5258082010981697E-01 
    6.2978483226708820E-02 
    9.3721021417929928E-01 
    9.6653607211572601E-01 
    9.5021541950130295E-01 
    9.2348863533806991E-01 
    8.8213467532416434E-01 
    8.0872054866404863E-01 
    7.2838235601998713E-01 
    6.1975635165750131E-01 
    4.9414052809977471E-01 
    3.7218847556112522E-01 
    2.0490678899851383E-01 
    9.0852613005653254E-02 
    7.0785144418491008E-01 
    8.4665714476870502E-01 
    8.4111246102193582E-01 
    9.0307205336117302E-01 
    8.6179781323212434E-01 
    8.5841308789472559E-01 
    7.7033898969881998E-01 
    7.0398121825543791E-01 
    5.5757833853284045E-01 
    4.4427854496268177E-01 
    2.3973528991351897E-01 
    1.1232980521587059E-01 
    7.1374423002037513E-01 
    7.0547962063141489E-01 
    7.2168041034202779E-01 
    7.7567531989647642E-01 
    6.8749368834737745E-01 
    7.5302773308900606E-01 
    5.8786106660015647E-01 
    6.3403887372206746E-01 
    4.1728810544653966E-01 
    4.1626136960125537E-01 
    1.8499257028640897E-01 
    1.2268285171414291E-01 
    4.9812578679181363E-01 
    6.0511680540007462E-01 
    4.4195530878634792E-01 
    5.4495655281750366E-01 
    3.6996248703000550E-01 
    4.5926027792711116E-01 
    2.8457380382044467E-01 
    3.4719815916036140E-01 
    1.8731805457001632E-01 
    2.1193039190664942E-01 
    8.2678571295971559E-02 
    6.3108774850116622E-02 
    2.3866699823790583E-01 
    2.8322913604249850E-01 
    2.0588793110730644E-01 
    2.3633714355460267E-01 
    1.6457423122740691E-01 
    1.8360822554702796E-01 
    1.1992992197957372E-01 
    1.2818108889080873E-01 
    7.4650979868657374E-02 
    7.2232748406265965E-02 
    3.0072613829255811E-02 
    1.5933503781629676E-02 
    6.1126188217251638E-02 
    1.1392597475252057E-01 
    5.1720626142087285E-02 
    9.4585077896917460E-02 
    4.1421342856422953E-02 
    7.3192831019734436E-02 
    3.0326967974177610E-02 
    5.0583939133684842E-02 
    1.8843723655553247E-02 
    2.7543088691597464E-02 
    7.2606540079872143E-03 
    4.4820086448378628E-03 

