# vtk DataFile Version 2.0
Pressure Field Data 
ASCII 
DATASET UNSTRUCTURED_GRID 

POINTS 1089 float 

    0.0000000000000000E+00     0.0000000000000000E+00     0.0000000000000000E+00 
    1.0000000000000000E+00     0.0000000000000000E+00     0.0000000000000000E+00 
    1.0000000000000000E+00     1.0000000000000000E+00     0.0000000000000000E+00 
    0.0000000000000000E+00     1.0000000000000000E+00     0.0000000000000000E+00 
    3.1249999999941821E-02     0.0000000000000000E+00     0.0000000000000000E+00 
    6.2499999999872928E-02     0.0000000000000000E+00     0.0000000000000000E+00 
    9.3749999999823030E-02     0.0000000000000000E+00     0.0000000000000000E+00 
    1.2499999999977310E-01     0.0000000000000000E+00     0.0000000000000000E+00 
    1.5624999999968331E-01     0.0000000000000000E+00     0.0000000000000000E+00 
    1.8749999999959341E-01     0.0000000000000000E+00     0.0000000000000000E+00 
    2.1874999999950220E-01     0.0000000000000000E+00     0.0000000000000000E+00 
    2.4999999999941089E-01     0.0000000000000000E+00     0.0000000000000000E+00 
    2.8124999999931971E-01     0.0000000000000000E+00     0.0000000000000000E+00 
    3.1249999999922851E-01     0.0000000000000000E+00     0.0000000000000000E+00 
    3.4374999999913730E-01     0.0000000000000000E+00     0.0000000000000000E+00 
    3.7499999999904610E-01     0.0000000000000000E+00     0.0000000000000000E+00 
    4.0624999999895478E-01     0.0000000000000000E+00     0.0000000000000000E+00 
    4.3749999999886358E-01     0.0000000000000000E+00     0.0000000000000000E+00 
    4.6874999999877792E-01     0.0000000000000000E+00     0.0000000000000000E+00 
    4.9999999999869210E-01     0.0000000000000000E+00     0.0000000000000000E+00 
    5.3124999999876910E-01     0.0000000000000000E+00     0.0000000000000000E+00 
    5.6249999999884603E-01     0.0000000000000000E+00     0.0000000000000000E+00 
    5.9374999999892841E-01     0.0000000000000000E+00     0.0000000000000000E+00 
    6.2499999999901090E-01     0.0000000000000000E+00     0.0000000000000000E+00 
    6.5624999999909328E-01     0.0000000000000000E+00     0.0000000000000000E+00 
    6.8749999999917577E-01     0.0000000000000000E+00     0.0000000000000000E+00 
    7.1874999999925815E-01     0.0000000000000000E+00     0.0000000000000000E+00 
    7.4999999999934064E-01     0.0000000000000000E+00     0.0000000000000000E+00 
    7.8124999999942302E-01     0.0000000000000000E+00     0.0000000000000000E+00 
    8.1249999999950551E-01     0.0000000000000000E+00     0.0000000000000000E+00 
    8.4374999999958789E-01     0.0000000000000000E+00     0.0000000000000000E+00 
    8.7499999999967026E-01     0.0000000000000000E+00     0.0000000000000000E+00 
    9.0624999999975264E-01     0.0000000000000000E+00     0.0000000000000000E+00 
    9.3749999999983513E-01     0.0000000000000000E+00     0.0000000000000000E+00 
    9.6874999999991751E-01     0.0000000000000000E+00     0.0000000000000000E+00 
    1.0000000000000000E+00     3.1249999999941821E-02     0.0000000000000000E+00 
    1.0000000000000000E+00     6.2499999999872928E-02     0.0000000000000000E+00 
    1.0000000000000000E+00     9.3749999999823030E-02     0.0000000000000000E+00 
    1.0000000000000000E+00     1.2499999999977310E-01     0.0000000000000000E+00 
    1.0000000000000000E+00     1.5624999999968331E-01     0.0000000000000000E+00 
    1.0000000000000000E+00     1.8749999999959341E-01     0.0000000000000000E+00 
    1.0000000000000000E+00     2.1874999999950220E-01     0.0000000000000000E+00 
    1.0000000000000000E+00     2.4999999999941089E-01     0.0000000000000000E+00 
    1.0000000000000000E+00     2.8124999999931971E-01     0.0000000000000000E+00 
    1.0000000000000000E+00     3.1249999999922851E-01     0.0000000000000000E+00 
    1.0000000000000000E+00     3.4374999999913730E-01     0.0000000000000000E+00 
    1.0000000000000000E+00     3.7499999999904610E-01     0.0000000000000000E+00 
    1.0000000000000000E+00     4.0624999999895478E-01     0.0000000000000000E+00 
    1.0000000000000000E+00     4.3749999999886358E-01     0.0000000000000000E+00 
    1.0000000000000000E+00     4.6874999999877792E-01     0.0000000000000000E+00 
    1.0000000000000000E+00     4.9999999999869210E-01     0.0000000000000000E+00 
    1.0000000000000000E+00     5.3124999999876910E-01     0.0000000000000000E+00 
    1.0000000000000000E+00     5.6249999999884603E-01     0.0000000000000000E+00 
    1.0000000000000000E+00     5.9374999999892841E-01     0.0000000000000000E+00 
    1.0000000000000000E+00     6.2499999999901090E-01     0.0000000000000000E+00 
    1.0000000000000000E+00     6.5624999999909328E-01     0.0000000000000000E+00 
    1.0000000000000000E+00     6.8749999999917577E-01     0.0000000000000000E+00 
    1.0000000000000000E+00     7.1874999999925815E-01     0.0000000000000000E+00 
    1.0000000000000000E+00     7.4999999999934064E-01     0.0000000000000000E+00 
    1.0000000000000000E+00     7.8124999999942302E-01     0.0000000000000000E+00 
    1.0000000000000000E+00     8.1249999999950551E-01     0.0000000000000000E+00 
    1.0000000000000000E+00     8.4374999999958789E-01     0.0000000000000000E+00 
    1.0000000000000000E+00     8.7499999999967026E-01     0.0000000000000000E+00 
    1.0000000000000000E+00     9.0624999999975264E-01     0.0000000000000000E+00 
    1.0000000000000000E+00     9.3749999999983513E-01     0.0000000000000000E+00 
    1.0000000000000000E+00     9.6874999999991751E-01     0.0000000000000000E+00 
    9.6874999999986700E-01     1.0000000000000000E+00     0.0000000000000000E+00 
    9.3749999999973976E-01     1.0000000000000000E+00     0.0000000000000000E+00 
    9.0624999999967670E-01     1.0000000000000000E+00     0.0000000000000000E+00 
    8.7499999999950118E-01     1.0000000000000000E+00     0.0000000000000000E+00 
    8.4374999999971556E-01     1.0000000000000000E+00     0.0000000000000000E+00 
    8.1249999999991318E-01     1.0000000000000000E+00     0.0000000000000000E+00 
    7.8125000000010270E-01     1.0000000000000000E+00     0.0000000000000000E+00 
    7.5000000000034706E-01     1.0000000000000000E+00     0.0000000000000000E+00 
    7.1875000000056688E-01     1.0000000000000000E+00     0.0000000000000000E+00 
    6.8750000000078049E-01     1.0000000000000000E+00     0.0000000000000000E+00 
    6.5625000000097422E-01     1.0000000000000000E+00     0.0000000000000000E+00 
    6.2500000000121403E-01     1.0000000000000000E+00     0.0000000000000000E+00 
    5.9375000000151579E-01     1.0000000000000000E+00     0.0000000000000000E+00 
    5.6250000000164757E-01     1.0000000000000000E+00     0.0000000000000000E+00 
    5.3125000000182365E-01     1.0000000000000000E+00     0.0000000000000000E+00 
    5.0000000000205946E-01     1.0000000000000000E+00     0.0000000000000000E+00 
    4.6875000000194023E-01     1.0000000000000000E+00     0.0000000000000000E+00 
    4.3750000000182099E-01     1.0000000000000000E+00     0.0000000000000000E+00 
    4.0625000000169093E-01     1.0000000000000000E+00     0.0000000000000000E+00 
    3.7500000000156092E-01     1.0000000000000000E+00     0.0000000000000000E+00 
    3.4375000000143069E-01     1.0000000000000000E+00     0.0000000000000000E+00 
    3.1250000000130068E-01     1.0000000000000000E+00     0.0000000000000000E+00 
    2.8125000000117062E-01     1.0000000000000000E+00     0.0000000000000000E+00 
    2.5000000000104050E-01     1.0000000000000000E+00     0.0000000000000000E+00 
    2.1875000000091041E-01     1.0000000000000000E+00     0.0000000000000000E+00 
    1.8750000000078040E-01     1.0000000000000000E+00     0.0000000000000000E+00 
    1.5625000000065031E-01     1.0000000000000000E+00     0.0000000000000000E+00 
    1.2500000000052031E-01     1.0000000000000000E+00     0.0000000000000000E+00 
    9.3750000000390132E-02     1.0000000000000000E+00     0.0000000000000000E+00 
    6.2500000000260125E-02     1.0000000000000000E+00     0.0000000000000000E+00 
    3.1250000000130007E-02     1.0000000000000000E+00     0.0000000000000000E+00 
    0.0000000000000000E+00     9.6874999999986700E-01     0.0000000000000000E+00 
    0.0000000000000000E+00     9.3749999999973976E-01     0.0000000000000000E+00 
    0.0000000000000000E+00     9.0624999999967670E-01     0.0000000000000000E+00 
    0.0000000000000000E+00     8.7499999999950118E-01     0.0000000000000000E+00 
    0.0000000000000000E+00     8.4374999999971556E-01     0.0000000000000000E+00 
    0.0000000000000000E+00     8.1249999999991318E-01     0.0000000000000000E+00 
    0.0000000000000000E+00     7.8125000000010270E-01     0.0000000000000000E+00 
    0.0000000000000000E+00     7.5000000000034706E-01     0.0000000000000000E+00 
    0.0000000000000000E+00     7.1875000000056688E-01     0.0000000000000000E+00 
    0.0000000000000000E+00     6.8750000000078049E-01     0.0000000000000000E+00 
    0.0000000000000000E+00     6.5625000000097422E-01     0.0000000000000000E+00 
    0.0000000000000000E+00     6.2500000000121403E-01     0.0000000000000000E+00 
    0.0000000000000000E+00     5.9375000000151579E-01     0.0000000000000000E+00 
    0.0000000000000000E+00     5.6250000000164757E-01     0.0000000000000000E+00 
    0.0000000000000000E+00     5.3125000000182365E-01     0.0000000000000000E+00 
    0.0000000000000000E+00     5.0000000000205946E-01     0.0000000000000000E+00 
    0.0000000000000000E+00     4.6875000000194023E-01     0.0000000000000000E+00 
    0.0000000000000000E+00     4.3750000000182099E-01     0.0000000000000000E+00 
    0.0000000000000000E+00     4.0625000000169093E-01     0.0000000000000000E+00 
    0.0000000000000000E+00     3.7500000000156092E-01     0.0000000000000000E+00 
    0.0000000000000000E+00     3.4375000000143069E-01     0.0000000000000000E+00 
    0.0000000000000000E+00     3.1250000000130068E-01     0.0000000000000000E+00 
    0.0000000000000000E+00     2.8125000000117062E-01     0.0000000000000000E+00 
[...]
CELL_DATA 1024 
SCALARS Pressure float 1 
LOOKUP_TABLE default 

    2.9149785739829071E-01 
    2.9185409566805842E-01 
    2.9597890211861516E-01 
    2.9757864922227595E-01 
    3.0208088092147062E-01 
    2.9978747055431554E-01 
    3.0302562285401469E-01 
    3.0556992455190407E-01 
    3.0831650056520010E-01 
    3.0569006063572746E-01 
    3.0782617433843473E-01 
    3.1046625990840065E-01 
    3.1210605925342882E-01 
    3.0948063758393074E-01 
    3.1069260539759946E-01 
    3.1329259953072625E-01 
    3.1406603567630259E-01 
    3.1149396726490292E-01 
    3.1191122931750187E-01 
    3.1445702754311672E-01 
    3.1449068579477912E-01 
    3.1196729694866798E-01 
    3.1168286911509285E-01 
    3.1418893950342025E-01 
    3.1357205199284560E-01 
    3.1107748679442054E-01 
    3.1017032817855533E-01 
    3.1265965415744629E-01 
    3.1147149408582270E-01 
    3.0898082992413989E-01 
    3.0752919237368681E-01 
    3.1002801569264965E-01 
    3.0835083327017249E-01 
    3.0583680920500467E-01 
    3.0392664966602423E-01 
    3.0646314340830844E-01 
    3.0439010096403840E-01 
    3.0182361331957180E-01 
    2.9955487182949420E-01 
    3.0215917673999387E-01 
    2.9980050845693113E-01 
    2.9715020881696635E-01 
    2.9464236655174797E-01 
    2.9734725152747515E-01 
    2.9483593007077669E-01 
    2.9206740683100818E-01 
    2.8946509287078304E-01 
    2.9230677844191577E-01 
    2.8980404299650736E-01 
    2.8687930060486283E-01 
    2.8435847666650643E-01 
    2.8737616846944164E-01 
    2.8507568775485043E-01 
    2.8195619582140435E-01 
    2.7973200212895488E-01 
    2.8295837505009025E-01 
    2.8108055071855986E-01 
    2.7775319688380384E-01 
    2.7609998914620121E-01 
    2.7949156319866375E-01 
    2.7821251723221840E-01 
    2.7488292471225467E-01 
    2.7430426436599054E-01 
    2.7714563751422971E-01 
    2.9128163890741715E-01 
    2.9034441143423045E-01 
    2.9350615199770197E-01 
    2.9472083956188033E-01 
    2.9802717525633704E-01 
    2.9651078179332807E-01 
    2.9922908168468049E-01 
    3.0097710939318512E-01 
    3.0348967563138440E-01 
    3.0158506151908726E-01 
    3.0354521393651968E-01 
    3.0555036306637440E-01 
    3.0717020598247341E-01 
    3.0510105783941316E-01 
    3.0625698864749845E-01 
    3.0836830102660451E-01 
    3.0916522232820948E-01 
    3.0702350452820221E-01 
    3.0741384608416100E-01 
    3.0958093072400017E-01 
    3.0963440763707517E-01 
    3.0744249596093753E-01 
    3.0712461982886929E-01 
    3.0934389678863455E-01 
    3.0872732401200920E-01 
    3.0647596259901655E-01 
    3.0551295645943072E-01 
    3.0780273979887268E-01 
    3.0658873574640422E-01 
    3.0425292315794344E-01 
    3.0271431576947527E-01 
    3.0510482591604449E-01 
    3.0337179790247243E-01 
    3.0091697593625188E-01 
    2.9888239750969681E-01 
    3.0141204233392072E-01 
    2.9924987000621683E-01 
    2.9663399486234143E-01 
    2.9419737803790336E-01 
    2.9691182546792050E-01 
    2.9442700572369418E-01 
    2.9160063957394688E-01 
    2.8887466071085155E-01 
    2.9182739350916637E-01 
    2.8914821723650630E-01 
    2.8605344920781578E-01 
    2.8317452922604602E-01 
    2.8642835615904438E-01 
    2.8371082416178023E-01 
    2.8027941959265423E-01 
    2.7741426765625243E-01 
    2.8104340005874140E-01 
    2.7847955404343588E-01 
    2.7463076569559414E-01 
    2.7198758807117190E-01 
    2.7608001719894448E-01 
    2.7391581792739939E-01 
    2.6955277418152235E-01 
    2.6740771175536149E-01 
    2.7207473228909779E-01 
    2.7067550985533168E-01 
    2.6565329020769474E-01 
    2.6441671746441636E-01 
    2.6989791369573773E-01 
    2.8923765711877508E-01 
    2.8802029707133975E-01 
    2.9097624912456582E-01 
    2.9226738062757279E-01 
    2.9509186303362495E-01 
    2.9368747181614080E-01 
    2.9611514316640153E-01 
    2.9764124598123892E-01 
    2.9986089388018627E-01 
    2.9822273301861391E-01 
    2.9998338951271475E-01 
    3.0171771828267152E-01 
    3.0319612714361122E-01 
    3.0138089060818940E-01 
    3.0240784345688732E-01 
    3.0429227588403723E-01 
    3.0500954361088434E-01 
    3.0306335843374610E-01 
    3.0335109893274509E-01 
    3.0535561016474116E-01 
    3.0534076709231345E-01 
    3.0327790726756626E-01 
    3.0285293692233728E-01 
    3.0497703163677176E-01 
    3.0427774317402373E-01 
    3.0208715796153052E-01 
    3.0099311543907320E-01 
    3.0325743738267502E-01 
    3.0193187669117522E-01 
    2.9958485201463664E-01 
    2.9787793493568426E-01 
    3.0031816794942073E-01 
    2.9843492929727999E-01 
    2.9588954910282450E-01 
    2.9363863259695572E-01 
    2.9630248607537840E-01 
    2.9394308590448454E-01 
    2.9114604064245636E-01 
    2.8843473024544436E-01 
    2.9138112921910786E-01 
    2.8864341572091839E-01 
    2.8552996205616937E-01 
    2.8245951932710134E-01 
    2.8575941086441592E-01 
    2.8276154083808963E-01 
    2.7925394692379130E-01 
    2.7594681666793802E-01 
    2.7968553089742121E-01 
    2.7657081210676165E-01 
    2.7257502891990587E-01 
    2.6917916315145585E-01 
    2.7346103765876484E-01 
    2.7040477311581401E-01 
    2.6580388804505661E-01 
    2.6249842200942519E-01 
    2.6745644978201794E-01 
    2.6467766667065962E-01 
    2.5931696680498617E-01 
    2.5631885135714133E-01 
    2.6213878663213241E-01 
    2.5992018341587497E-01 
    2.5356769311646171E-01 
    2.5112806286941142E-01 
    2.5811070320533369E-01 
    2.8669535308648691E-01 
    2.8524062302484410E-01 
    2.8811552297427617E-01 
    2.8960395976512709E-01 
    2.9223876154947531E-01 
    2.9069504310823419E-01 
    2.9296392298478985E-01 
    2.9457656231820151E-01 
    2.9659294839832195E-01 
    2.9490521865631286E-01 
    2.9650351258620389E-01 
    2.9826749674754993E-01 
    2.9958584079554690E-01 
    2.9774677531589666E-01 
    2.9862700268599673E-01 
    3.0053968536734171E-01 
    3.0112592223123624E-01 
    2.9914009402005232E-01 
    2.9928539376194019E-01 
    3.0134556279984009E-01 
    3.0120281504024266E-01 
    2.9906516598351113E-01 
    2.9848413571825838E-01 
    3.0070440134639348E-01 
    2.9985910826039519E-01 
    2.9754914454054465E-01 
    2.9626892283864192E-01 
    2.9867752323726837E-01 
    2.9717191006306043E-01 
    2.9465396254900661E-01 
    2.9271646927985501E-01 
    2.9535618247125578E-01 
    2.9324594565558709E-01 
    2.9047037409171689E-01 
    2.8793138855618861E-01 
    2.9085858425520711E-01 
    2.8821338220582632E-01 
    2.8511709024021337E-01 
    2.8204702867446613E-01 
    2.8533166473853488E-01 
    2.8223695624758061E-01 
    2.7874284397018984E-01 
    2.7522839148203765E-01 
    2.7895515012186617E-01 
    2.7551468818811908E-01 
    2.7152986616309410E-01 
    2.6767591915276545E-01 
    2.7194674804045099E-01 
    2.6828543549079753E-01 
    2.6369775580069238E-01 
    2.5962919700187037E-01 
    2.6456797462771209E-01 
    2.6083487484108764E-01 
    2.5550667122168585E-01 
    2.5136907786340129E-01 
    2.5713002304653593E-01 
    2.5350058260454278E-01 
    2.4725741718372149E-01 
    2.4321401384169641E-01 
    2.4999645151379421E-01 
    2.4666881874411187E-01 
    2.3928108232488796E-01 
    2.3549835318209966E-01 
    2.4356710080865482E-01 
    2.8362156536074146E-01 
    2.8179720802534641E-01 
    2.8462610083080903E-01 
    2.8647077923343595E-01 
    2.8900795045020566E-01 
    2.8712950060923526E-01 
    2.8929845729195364E-01 
    2.9122194291739339E-01 
    2.9310026966217573E-01 
    2.9112309619529775E-01 
    2.9259374135435984E-01 
    2.9463099167306789E-01 
    2.9580410094880422E-01 
    2.9370187432446154E-01 
    2.9444076891485499E-01 
    2.9661224977786849E-01 
    2.9705096102019962E-01 
    2.9480580637790615E-01 
    2.9479455468751442E-01 
    2.9711852614674661E-01 
    2.9681576560075995E-01 
    2.9440670937840480E-01 
    2.9364397502810952E-01 
    2.9614576514016072E-01 
    2.9511364834591142E-01 
    2.9250993976886053E-01 
    2.9100997180227350E-01 
    2.9372640928398169E-01 
    2.9199280870947730E-01 
    2.8915115033145145E-01 
    2.8694223309690464E-01 
    2.8992332724618347E-01 
    2.8753016528900333E-01 
    2.8439365712152065E-01 
    2.8151756657531879E-01 
    2.8482727881639364E-01 
    2.8183044104660904E-01 
    2.7832786055257680E-01 
    2.7484025311423321E-01 
    2.7855732088676294E-01 
    2.7502756988600552E-01 
    2.7107233762041921E-01 
    2.6704364678041093E-01 
    2.7126290959954530E-01 
    2.6728721061478261E-01 
    2.6277569866843359E-01 
    2.5829201685774356E-01 
    2.6312655257312828E-01 
    2.5880925064887256E-01 
    2.5361810938482826E-01 
    2.4878138594911622E-01 
    2.5436582701337862E-01 
    2.4982889423955928E-01 
    2.4381098509364921E-01 
    2.3873747309300888E-01 
    2.4523289964579342E-01 
    2.4061365461421594E-01 
    2.3359236541346887E-01 
    2.2840741493557376E-01 
    2.3600754493414053E-01 
    2.3145030319581369E-01 
    2.2321362008825749E-01 
    2.1803995055843700E-01 
    2.2697526151608310E-01 
    2.7972306448533629E-01 
    2.7735265470137033E-01 
    2.8015237716396862E-01 
    2.8253568209829111E-01 
    2.8501154975714932E-01 
    2.8260570613507380E-01 
    2.8470543297969125E-01 
    2.8714287525604698E-01 
    2.8892127809785556E-01 
    2.8644398424258505E-01 
    2.8781385058754677E-01 
    2.9033846991957263E-01 
    2.9138690638772019E-01 
    2.8880803346737621E-01 
    2.8942042813766283E-01 
    2.9206028893617553E-01 
    2.9235388196484019E-01 
    2.8964610488756187E-01 
    2.8948148694798792E-01 
    2.9226466910143722E-01 
    2.9179139630440465E-01 
    2.8892444490841646E-01 
    2.8797433486250806E-01 
    2.9093455048431344E-01 
    2.8969631222164705E-01 
    2.8663200594486216E-01 
    2.8489979720704151E-01 
    2.8808050838735377E-01 
    2.8609257927947024E-01 
    2.8278153716021515E-01 
    2.8028255341714503E-01 
    2.8373956657956428E-01 
    2.8103012288941603E-01 
    2.7740969524820486E-01 
    2.7417136847715973E-01 
    2.7797454015014694E-01 
    2.7458479214105602E-01 
    2.7057757969588003E-01 
    2.6663998493884827E-01 
    2.7087458489061095E-01 
    2.6685940775281941E-01 
    2.6237193643565893E-01 
    2.5778851962667748E-01 
    2.6255657677849925E-01 
    2.5798526058832316E-01 
    2.5290657112257547E-01 
    2.4774466661267489E-01 
    2.5316647701464651E-01 
    2.4812304612512190E-01 
    2.4232306585079871E-01 
    2.3666359985943819E-01 
    2.4287948174290364E-01 
    2.3746179932148495E-01 
    2.3078948370649258E-01 
    2.2472503735411994E-01 
    2.3189721365958715E-01 
    2.2621369725917390E-01 
    2.1849529857643149E-01 
    2.1212551814868630E-01 
    2.2043937296197383E-01 
    2.1460172939485411E-01 
    2.0564054161869180E-01 
    1.9906410687630058E-01 
    2.0872668319942592E-01 
    2.7463832620849182E-01 
    2.7153170120439357E-01 
    2.7431467399257325E-01 
    2.7742821072485241E-01 
    2.7986336353577584E-01 
    2.7673574281370722E-01 
    2.7878797068243855E-01 
    2.8193681939359910E-01 
    2.8364137738190248E-01 
    2.8046424347341614E-01 
    2.8175747172869209E-01 
    2.8496988597607109E-01 
    2.8591555701284260E-01 
    2.8266082001591386E-01 
    2.8316793153442177E-01 
    2.8647225688265882E-01 
    2.8663474372431103E-01 
    2.8327312505296487E-01 
    2.8297155338050911E-01 
    2.8639884083322764E-01 
    2.8576155207442344E-01 
    2.8225932300748341E-01 
    2.8113358133109240E-01 
    2.8472113318816494E-01 
    2.8327713491461021E-01 
    2.7959258094232114E-01 
    2.7763573070545122E-01 
    2.8143043215641617E-01 
    2.7918324998069399E-01 
    2.7526364190921854E-01 
    2.7247817551726744E-01 
    2.7653919346926231E-01 
    2.7350328494678000E-01 
    2.6928249408103705E-01 
    2.6568111950182738E-01 
    2.7008200918413633E-01 
    2.6628336477073195E-01 
    2.6167999564480032E-01 
    2.5728655281239610E-01 
    2.6211691784704050E-01 
    2.5759385264281909E-01 
    2.5250976923772900E-01 
    2.4736022303252470E-01 
    2.5272701166026956E-01 
    2.4753091681125955E-01 
    2.4185012643778636E-01 
    2.3599333286692498E-01 
    2.4202176136659065E-01 
    2.3621736128998425E-01 
    2.2980530627372964E-01 
    2.2330304209023397E-01 
    2.3013705361081496E-01 
    2.2380152930407998E-01 
    2.1650492973064381E-01 
    2.0943054890635315E-01 
    2.1723258930032271E-01 
    2.1045281566137133E-01 
    2.0210039625545001E-01 
    1.9453554551736099E-01 
    2.0348515684896784E-01 
    1.9635243762701041E-01 
    1.8675725385104425E-01 
    1.7878653835786548E-01 
    1.8907682093487729E-01 
    2.6798391274472622E-01 
    2.6394571621786478E-01 
    2.6672364516531927E-01 
    2.7076288257949671E-01 
    2.7317390932586078E-01 
    2.6912876152061149E-01 
    2.7115378460747314E-01 
    2.7520993800880678E-01 
    2.7686374398199104E-01 
    2.7279123475456935E-01 
    2.7403355930353146E-01 
    2.7812808635178410E-01 
    2.7899588383852331E-01 
    2.7487327525058936E-01 
    2.7530311513644035E-01 
    2.7946039268665634E-01 
    2.7951537057697412E-01 
    2.7531616513481083E-01 
    2.7490598844742581E-01 
    2.7915521736147236E-01 
    2.7837509021832191E-01 
    2.7406673158668021E-01 
    2.7279321484743030E-01 
    2.7717099593865829E-01 
    2.7553986601682190E-01 
    2.7108101074131019E-01 
    2.6892651535447953E-01 
    2.7347962124250624E-01 
    2.7098923211330928E-01 
    2.6632701771258871E-01 
    2.6328077159334135E-01 
    2.6806878014252805E-01 
    2.6471952344925553E-01 
    2.5978707308294191E-01 
    2.5584634571384191E-01 
    2.6094396814874304E-01 
    2.5674594514235172E-01 
    2.5146023335205614E-01 
    2.4663169916958952E-01 
    2.5213068998641841E-01 
    2.4710492161388253E-01 
    2.4136512706688712E-01 
    2.3566641984756448E-01 
    2.4167691381996442E-01 
    2.3585655168188158E-01 
    2.2954308640072704E-01 
    2.2300430832246210E-01 
    2.2965536361940397E-01 
    2.2308651886853126E-01 
    2.1606097513778968E-01 
    2.0872567701452413E-01 
    2.1616478007517154E-01 
    2.0890640191703527E-01 
    2.0101264509905753E-01 
    1.9293763279589002E-01 
    2.0132896951431309E-01 
    1.9345117515094770E-01 
    1.8451773664611787E-01 
    1.7577116263970433E-01 
    1.8529253847926702E-01 
    1.7687308345516609E-01 
    1.6671695187063956E-01 
    1.5737468682720959E-01 
    1.6821299368975615E-01 
    2.5936752378473693E-01 
    2.5419938883775256E-01 
    2.5698455253819713E-01 
    2.6214747348751699E-01 
    2.6455099417849148E-01 
    2.5939104136134927E-01 
    2.6141087263495211E-01 
    2.6657049276914507E-01 
    2.6819812094510626E-01 
    2.6303573201442776E-01 
    2.6425708284688193E-01 
    2.6942588753185953E-01 
    2.7024578169872726E-01 
    2.6506628018939615E-01 
    2.6545468177964515E-01 
    2.7064989747070223E-01 
    2.7063055195149310E-01 
    2.6541375080478108E-01 
    2.6493514809645718E-01 
    2.7018039264969285E-01 
    2.6929249247157294E-01 
    2.6401081390709247E-01 
    2.6263304142565852E-01 
    2.6796043365638988E-01 
    2.6617838385004727E-01 
    2.6079454557423321E-01 
    2.5848853140963957E-01 
    2.6394116857120248E-01 
    2.6124434461492668E-01 
    2.5570876671814236E-01 
    2.5244966322787221E-01 
    2.5808427862081162E-01 
    2.5445823425453568E-01 
    2.4870637034302071E-01 
    2.4447488445237028E-01 
    2.5036447031754205E-01 
    2.4580235065722786E-01 
    2.3975217566016852E-01 
    2.3453633216645009E-01 
    2.4077246500614477E-01 
    2.3527675782584642E-01 
    2.2882672040540097E-01 
    2.2262415637548910E-01 
    2.2931865988863001E-01 
    2.2290321479496852E-01 
    2.1593108038966100E-01 
    2.0875172393207866E-01 
    2.1603719012489320E-01 
    2.0872916086663085E-01 
    2.0109225388700266E-01 
    1.9296087690073510E-01 
    2.0098955175846445E-01 
    1.9283062596161482E-01 
    1.8436788617503161E-01 
    1.7532563584712724E-01 
    1.8426641076395014E-01 
    1.7531255717246136E-01 
    1.6584843527408122E-01 
    1.5595236699212978E-01 
    1.6598613893151176E-01 
    1.5630540628754888E-01 
    1.4565504606734020E-01 
    1.3497535108905251E-01 
    1.4628951825716943E-01 
    2.4839095573822714E-01 
    2.4189138248449102E-01 
    2.4469719769540793E-01 
    2.5118468236636227E-01 
    2.5359900356032694E-01 
    2.4712456240185773E-01 
    2.4916447413283185E-01 
    2.5562547013420001E-01 
    2.5725520913713829E-01 
    2.5080740242997029E-01 
    2.5204342559710013E-01 
    2.5847904058308457E-01 
    2.5928759107875232E-01 
    2.5286235277963853E-01 
    2.5325382435506066E-01 
    2.5967139722041366E-01 
    2.5962099568945574E-01 
    2.5320739022564559E-01 
    2.5271256959835126E-01 
    2.5912700018391727E-01 
    2.5818016754973500E-01 
    2.5175889773652976E-01 
    2.5033596578730560E-01 
    2.5677145687769920E-01 
    2.5489208613174991E-01 
    2.4843345979692721E-01 
    2.4604120484290745E-01 
    2.5253359126109015E-01 
    2.4968789285321386E-01 
    2.4314922003953890E-01 
    2.3974779006805258E-01 
    2.4634737527742082E-01 
    2.4250498296145950E-01 
    2.3582755880407394E-01 
    2.3137965045164000E-01 
    2.3815433789391516E-01 
    2.3328988155142913E-01 
    2.2639582316543846E-01 
    2.2086865919595758E-01 
    2.2790704305868120E-01 
    2.2200243330652272E-01 
    2.1479179379000099E-01 
    2.0816018202057843E-01 
    2.1557406178196403E-01 
    2.0862156887163366E-01 
    2.0097039800199207E-01 
    1.9322095430532985E-01 
    2.0114646144174791E-01 
    1.9315233398075088E-01 
    1.8491262096383437E-01 
    1.7604871416845594E-01 
    1.8464505247222007E-01 
    1.7563287508758071E-01 
    1.6663531674770971E-01 
    1.5668138944018106E-01 
    1.6612648499609317E-01 
    1.5613891839774335E-01 
    1.4619873855986040E-01 
    1.3520182614954723E-01 
    1.4568538649289151E-01 
    1.3478301186496366E-01 
    1.2370744344836687E-01 
    1.1173430954853528E-01 
    1.2345052168993213E-01 
    2.3464923799624215E-01 
    2.2661236943227750E-01 
    2.2945377192181202E-01 
    2.3747086741892071E-01 
    2.3991688511772391E-01 
    2.3192452004566810E-01 
    2.3401412574604791E-01 
    2.4197762462929889E-01 
    2.4364277913253532E-01 
    2.3571134756213097E-01 
    2.3700442973165856E-01 
    2.4490157605234206E-01 
    2.4574291745526830E-01 
    2.3788127176291260E-01 
    2.3832952805403901E-01 
    2.4615548031471160E-01 
    2.4612778110135677E-01 
    2.3833665214326960E-01 
    2.3788990408805355E-01 
    2.4564821380330468E-01 
    2.4470507142839754E-01 
    2.3697633772416629E-01 
    2.3558278103170235E-01 
    2.4328656024684245E-01 
    2.4138081479226461E-01 
    2.3369581957671082E-01 
    2.3130179077840099E-01 
    2.3897592061546391E-01 
    2.3605995121274184E-01 
    2.2838679567750073E-01 
    2.2493673478422291E-01 
    2.3262102543078922E-01 
    2.2864739186785082E-01 
    2.2093737522136722E-01 
    2.1637445749215584E-01 
    2.2412754716438624E-01 
    2.1905039535688808E-01 
    2.1123385150373877E-01 
    2.0550177257721078E-01 
    2.1340545531051242E-01 
    2.0718312216662557E-01 
    1.9916506848886964E-01 
    1.9221158722324339E-01 
    2.0037498608878970E-01 
    1.9297420656156203E-01 
    1.8463063078475109E-01 
    1.7641349142778132E-01 
    1.8497593225928255E-01 
    1.7637774451882329E-01 
    1.6755405120893488E-01 
    1.5804940266046785E-01 
    1.6718008709375279E-01 
    1.5738662836671141E-01 
    1.4790041866184633E-01 
    1.3711216899608003E-01 
    1.4700448971251898E-01 
    1.3604427383204695E-01 
    1.2569406290356461E-01 
    1.1365961282248742E-01 
    1.2451985014954152E-01 
    1.1244790785792400E-01 
    1.0102578844242144E-01 
    8.7812069834613121E-02 
    9.9847364423078219E-02 
    2.1772772618018149E-01 
    2.0794111219218270E-01 
    2.1083520852320264E-01 
    2.2059315108259100E-01 
    2.2309528406013920E-01 
    2.1337614405811589E-01 
    2.1555089077971357E-01 