# vtk DataFile Version 2.0
Pressure Field Data 
ASCII 
DATASET UNSTRUCTURED_GRID 

POINTS 25 float 

    0.0000000000000000E+00     0.0000000000000000E+00     0.0000000000000000E+00 
    1.0000000000000000E+00     0.0000000000000000E+00     0.0000000000000000E+00 
    1.0000000000000000E+00     1.0000000000000000E+00     0.0000000000000000E+00 
    0.0000000000000000E+00     1.0000000000000000E+00     0.0000000000000000E+00 
    2.5000000000000000E-01     0.0000000000000000E+00     0.0000000000000000E+00 
    5.0000000000000000E-01     0.0000000000000000E+00     0.0000000000000000E+00 
    7.5000000000000000E-01     0.0000000000000000E+00     0.0000000000000000E+00 
    1.0000000000000000E+00     2.5000000000000000E-01     0.0000000000000000E+00 
    1.0000000000000000E+00     5.0000000000000000E-01     0.0000000000000000E+00 
    1.0000000000000000E+00     7.5000000000000000E-01     0.0000000000000000E+00 
    7.5000000000000000E-01     1.0000000000000000E+00     0.0000000000000000E+00 
    5.0000000000000000E-01     1.0000000000000000E+00     0.0000000000000000E+00 
    2.5000000000000000E-01     1.0000000000000000E+00     0.0000000000000000E+00 
    0.0000000000000000E+00     7.5000000000000000E-01     0.0000000000000000E+00 
    0.0000000000000000E+00     5.0000000000000000E-01     0.0000000000000000E+00 
    0.0000000000000000E+00     2.5000000000000000E-01     0.0000000000000000E+00 
    2.5000000000000000E-01     7.5000000000000000E-01     0.0000000000000000E+00 
    5.0000000000000000E-01     7.5000000000000000E-01     0.0000000000000000E+00 
    7.5000000000000000E-01     7.5000000000000000E-01     0.0000000000000000E+00 
    2.5000000000000000E-01     5.0000000000000000E-01     0.0000000000000000E+00 
    5.0000000000000000E-01     5.0000000000000000E-01     0.0000000000000000E+00 
    7.5000000000000000E-01     5.0000000000000000E-01     0.0000000000000000E+00 
    2.5000000000000000E-01     2.5000000000000000E-01     0.0000000000000000E+00 
    5.0000000000000000E-01     2.5000000000000000E-01     0.0000000000000000E+00 
    7.5000000000000000E-01     2.5000000000000000E-01     0.0000000000000000E+00 

CELLS 16 80 

4 3 13 16 12 
4 12 16 17 11 
4 11 17 18 10 
4 10 18 9 2 
4 13 14 19 16 
4 16 19 20 17 
4 17 20 21 18 
4 18 21 8 9 
4 14 15 22 19 
4 19 22 23 20 
4 20 23 24 21 
4 21 24 7 8 
4 15 0 4 22 
4 22 4 5 23 
4 23 5 6 24 
4 24 6 1 7 

CELL_TYPES 16 

7 
7 
7 
7 
7 
7 
7 
7 
7 
7 
7 
7 
7 
7 
7 
7 

CELL_DATA 16 
SCALARS Pressure float 1 
LOOKUP_TABLE default 

    2.2533444440100090E+00 
    2.2513533195182975E+00 
    2.2489985728808253E+00 
    2.2463036635908664E+00 
    4.7701033195182969E+00 
    4.7529984164842016E+00 
    4.7459459063184228E+00 
    4.7302485728808250E+00 
    6.1052485728808241E+00 
    6.1209459063184211E+00 
    6.1279984164842034E+00 
    6.1451033195182996E+00 
    6.3713036635908651E+00 
    6.3739985728808248E+00 
    6.3763533195182980E+00 
    6.3783444440100086E+00 

