# vtk DataFile Version 2.0
Pressure Field Data 
ASCII 
DATASET UNSTRUCTURED_GRID 

POINTS 169 float 

    0.0000000000000000E+00     0.0000000000000000E+00     0.0000000000000000E+00 
    1.0000000000000000E+00     0.0000000000000000E+00     0.0000000000000000E+00 
    1.0000000000000000E+00     1.0000000000000000E+00     0.0000000000000000E+00 
    0.0000000000000000E+00     1.0000000000000000E+00     0.0000000000000000E+00 
    5.0000000000000000E-01     0.0000000000000000E+00     0.0000000000000000E+00 
    5.0000000000000000E-01     1.0000000000000000E+00     0.0000000000000000E+00 
    1.0000000000000000E+00     8.0000000000000004E-01     0.0000000000000000E+00 
    8.2999999999999996E-01     8.0000000000000004E-01     0.0000000000000000E+00 
    6.6000000000000003E-01     2.0000000000000001E-01     0.0000000000000000E+00 
    3.4000000000000002E-01     8.0000000000000004E-01     0.0000000000000000E+00 
    1.7000000000000001E-01     2.0000000000000001E-01     0.0000000000000000E+00 
    0.0000000000000000E+00     2.0000000000000001E-01     0.0000000000000000E+00 
    1.7000000000000001E-01     0.0000000000000000E+00     0.0000000000000000E+00 
    1.7000000000000001E-01     1.0000000000000000E+00     0.0000000000000000E+00 
    3.4000000000000002E-01     1.0000000000000000E+00     0.0000000000000000E+00 
    3.4000000000000002E-01     0.0000000000000000E+00     0.0000000000000000E+00 
    6.6000000000000003E-01     0.0000000000000000E+00     0.0000000000000000E+00 
    6.6000000000000003E-01     1.0000000000000000E+00     0.0000000000000000E+00 
    8.2999999999999996E-01     1.0000000000000000E+00     0.0000000000000000E+00 
    8.2999999999999996E-01     0.0000000000000000E+00     0.0000000000000000E+00 
    5.0000000000000000E-01     5.0000000000000000E-01     0.0000000000000000E+00 
    8.4999999999781806E-02     0.0000000000000000E+00     0.0000000000000000E+00 
    2.5499999999978301E-01     0.0000000000000000E+00     0.0000000000000000E+00 
    4.1999999999977228E-01     0.0000000000000000E+00     0.0000000000000000E+00 
    5.7999999999984830E-01     0.0000000000000000E+00     0.0000000000000000E+00 
    7.4499999999969624E-01     0.0000000000000000E+00     0.0000000000000000E+00 
    9.1499999999980464E-01     0.0000000000000000E+00     0.0000000000000000E+00 
    1.0000000000000000E+00     1.3333333333306890E-01     0.0000000000000000E+00 
    1.0000000000000000E+00     2.6666666666600858E-01     0.0000000000000000E+00 
    1.0000000000000000E+00     3.9999999999894842E-01     0.0000000000000000E+00 
    1.0000000000000000E+00     5.3333333333261779E-01     0.0000000000000000E+00 
    1.0000000000000000E+00     6.6666666666631980E-01     0.0000000000000000E+00 
    1.0000000000000000E+00     8.3333333333322490E-01     0.0000000000000000E+00 
    1.0000000000000000E+00     8.6666666666642811E-01     0.0000000000000000E+00 
    1.0000000000000000E+00     8.9999999999982638E-01     0.0000000000000000E+00 
    1.0000000000000000E+00     9.3333333333322477E-01     0.0000000000000000E+00 
    1.0000000000000000E+00     9.6666666666660150E-01     0.0000000000000000E+00 
    9.1500000000028214E-01     1.0000000000000000E+00     0.0000000000000000E+00 
    7.4500000000030375E-01     1.0000000000000000E+00     0.0000000000000000E+00 
    5.8000000000019514E-01     1.0000000000000000E+00     0.0000000000000000E+00 
    4.2000000000019527E-01     1.0000000000000000E+00     0.0000000000000000E+00 
    2.5500000000020051E-01     1.0000000000000000E+00     0.0000000000000000E+00 
    8.5000000000214265E-02     1.0000000000000000E+00     0.0000000000000000E+00 
    0.0000000000000000E+00     8.6666666666703562E-01     0.0000000000000000E+00 
    0.0000000000000000E+00     7.3333333333407114E-01     0.0000000000000000E+00 
    0.0000000000000000E+00     6.0000000000108500E-01     0.0000000000000000E+00 
    0.0000000000000000E+00     4.6666666666741158E-01     0.0000000000000000E+00 
    0.0000000000000000E+00     3.3333333333369503E-01     0.0000000000000000E+00 
    0.0000000000000000E+00     1.6666666666675889E-01     0.0000000000000000E+00 
    0.0000000000000000E+00     1.3333333333351780E-01     0.0000000000000000E+00 
    0.0000000000000000E+00     1.0000000000027399E-01     0.0000000000000000E+00 
    0.0000000000000000E+00     6.6666666666852920E-02     0.0000000000000000E+00 
    0.0000000000000000E+00     3.3333333333423747E-02     0.0000000000000000E+00 
    1.7000000000000001E-01     3.3333333333267212E-02     0.0000000000000000E+00 
    1.7000000000000001E-01     6.6666666666502158E-02     0.0000000000000000E+00 
    1.7000000000000001E-01     9.9999999999737105E-02     0.0000000000000000E+00 
    1.7000000000000001E-01     1.3333333333315450E-01     0.0000000000000000E+00 
    1.7000000000000001E-01     1.6666666666658000E-01     0.0000000000000000E+00 
    1.7000000000000001E-01     3.3333333333306081E-01     0.0000000000000000E+00 
    1.7000000000000001E-01     4.6666666666598061E-01     0.0000000000000000E+00 
    1.7000000000000001E-01     5.9999999999894360E-01     0.0000000000000000E+00 
    1.7000000000000001E-01     7.3333333333261463E-01     0.0000000000000000E+00 
    1.7000000000000001E-01     8.6666666666630743E-01     0.0000000000000000E+00 
    3.4000000000000002E-01     1.3333333333306890E-01     0.0000000000000000E+00 
    3.4000000000000002E-01     2.6666666666600858E-01     0.0000000000000000E+00 
    3.4000000000000002E-01     3.9999999999894842E-01     0.0000000000000000E+00 
    3.4000000000000002E-01     5.3333333333261779E-01     0.0000000000000000E+00 
    3.4000000000000002E-01     6.6666666666631980E-01     0.0000000000000000E+00 
    3.4000000000000002E-01     8.3333333333322490E-01     0.0000000000000000E+00 
    3.4000000000000002E-01     8.6666666666642811E-01     0.0000000000000000E+00 
    3.4000000000000002E-01     8.9999999999982638E-01     0.0000000000000000E+00 
    3.4000000000000002E-01     9.3333333333322477E-01     0.0000000000000000E+00 
    3.4000000000000002E-01     9.6666666666660150E-01     0.0000000000000000E+00 
    5.0000000000000000E-01     8.3333333333160439E-02     0.0000000000000000E+00 
    5.0000000000000000E-01     1.6666666666625049E-01     0.0000000000000000E+00 
    5.0000000000000000E-01     2.4999999999934600E-01     0.0000000000000000E+00 
    5.0000000000000000E-01     3.3333333333289372E-01     0.0000000000000000E+00 
    5.0000000000000000E-01     4.1666666666644692E-01     0.0000000000000000E+00 
    5.0000000000000000E-01     5.8333333333333337E-01     0.0000000000000000E+00 
    5.0000000000000000E-01     6.6666666666666663E-01     0.0000000000000000E+00 
    5.0000000000000000E-01     7.5000000000000000E-01     0.0000000000000000E+00 
    5.0000000000000000E-01     8.3333333333333326E-01     0.0000000000000000E+00 
    5.0000000000000000E-01     9.1666666666666663E-01     0.0000000000000000E+00 
    6.6000000000000003E-01     3.3333333333267212E-02     0.0000000000000000E+00 
    6.6000000000000003E-01     6.6666666666502158E-02     0.0000000000000000E+00 
    6.6000000000000003E-01     9.9999999999737105E-02     0.0000000000000000E+00 
    6.6000000000000003E-01     1.3333333333315450E-01     0.0000000000000000E+00 
    6.6000000000000003E-01     1.6666666666658000E-01     0.0000000000000000E+00 
    6.6000000000000003E-01     3.3333333333306081E-01     0.0000000000000000E+00 
    6.6000000000000003E-01     4.6666666666598061E-01     0.0000000000000000E+00 
    6.6000000000000003E-01     5.9999999999894360E-01     0.0000000000000000E+00 
    6.6000000000000003E-01     7.3333333333261463E-01     0.0000000000000000E+00 
    6.6000000000000003E-01     8.6666666666630743E-01     0.0000000000000000E+00 
    8.2999999999999996E-01     1.3333333333306890E-01     0.0000000000000000E+00 
    8.2999999999999996E-01     2.6666666666600858E-01     0.0000000000000000E+00 
    8.2999999999999996E-01     3.9999999999894842E-01     0.0000000000000000E+00 
    8.2999999999999996E-01     5.3333333333261779E-01     0.0000000000000000E+00 
    8.2999999999999996E-01     6.6666666666631980E-01     0.0000000000000000E+00 
    8.2999999999999996E-01     8.3333333333322490E-01     0.0000000000000000E+00 
    8.2999999999999996E-01     8.6666666666642811E-01     0.0000000000000000E+00 
    8.2999999999999996E-01     8.9999999999982638E-01     0.0000000000000000E+00 
    8.2999999999999996E-01     9.3333333333322477E-01     0.0000000000000000E+00 
    8.2999999999999996E-01     9.6666666666660150E-01     0.0000000000000000E+00 
    8.4999999999781806E-02     2.0000000000000001E-01     0.0000000000000000E+00 
    2.5499999999977202E-01     4.9999999999919531E-01     0.0000000000000000E+00 
    4.1999999999987758E-01     6.5000000000022951E-01     0.0000000000000000E+00 
    5.7999999999983576E-01     3.5000000000030801E-01     0.0000000000000000E+00 
    7.4499999999976552E-01     4.9999999999917250E-01     0.0000000000000000E+00 
    9.1499999999980464E-01     8.0000000000000004E-01     0.0000000000000000E+00 
    8.4999999999781806E-02     3.3333333333345483E-02     0.0000000000000000E+00 
    8.4999999999781820E-02     6.6666666666677546E-02     0.0000000000000000E+00 
    8.4999999999781806E-02     1.0000000000000550E-01     0.0000000000000000E+00 
    8.4999999999781806E-02     1.3333333333333611E-01     0.0000000000000000E+00 
    8.4999999999781806E-02     1.6666666666666941E-01     0.0000000000000000E+00 
    2.5499999999978118E-01     8.3333333333033915E-02     0.0000000000000000E+00 
    2.5499999999977929E-01     1.6666666666598720E-01     0.0000000000000000E+00 
    2.5499999999977740E-01     2.4999999999894040E-01     0.0000000000000000E+00 
    2.5499999999977557E-01     3.3333333333234971E-01     0.0000000000000000E+00 
    2.5499999999977391E-01     4.1666666666577912E-01     0.0000000000000000E+00 
    4.1999999999978971E-01     1.0833333333315290E-01     0.0000000000000000E+00 
    4.1999999999980731E-01     2.1666666666620610E-01     0.0000000000000000E+00 
    4.1999999999982501E-01     3.2499999999926188E-01     0.0000000000000000E+00 
    4.1999999999984239E-01     4.3333333333290880E-01     0.0000000000000000E+00 
    4.1999999999985999E-01     5.4166666666657448E-01     0.0000000000000000E+00 
    5.7999999999984608E-01     5.8333333333265167E-02     0.0000000000000000E+00 
    5.7999999999984408E-01     1.1666666666647900E-01     0.0000000000000000E+00 
    5.7999999999984186E-01     1.7499999999969559E-01     0.0000000000000000E+00 
    5.7999999999983987E-01     2.3333333333322939E-01     0.0000000000000000E+00 
    5.7999999999983787E-01     2.9166666666677010E-01     0.0000000000000000E+00 
    7.4499999999970790E-01     8.3333333333030127E-02     0.0000000000000000E+00 
    7.4499999999971933E-01     1.6666666666597951E-01     0.0000000000000000E+00 
    7.4499999999973099E-01     2.4999999999892900E-01     0.0000000000000000E+00 
    7.4499999999974242E-01     3.3333333333233439E-01     0.0000000000000000E+00 
    7.4499999999975397E-01     4.1666666666576019E-01     0.0000000000000000E+00 
    9.1499999999980464E-01     1.3333333333306890E-01     0.0000000000000000E+00 
    9.1499999999980464E-01     2.6666666666600858E-01     0.0000000000000000E+00 
    9.1499999999980464E-01     3.9999999999894842E-01     0.0000000000000000E+00 
    9.1499999999980464E-01     5.3333333333261779E-01     0.0000000000000000E+00 
    9.1499999999980464E-01     6.6666666666631980E-01     0.0000000000000000E+00 
    8.4999999999853859E-02     3.3333333333337789E-01     0.0000000000000000E+00 
    8.4999999999925954E-02     4.6666666666669598E-01     0.0000000000000000E+00 
    8.4999999999998022E-02     6.0000000000001441E-01     0.0000000000000000E+00 
    8.5000000000070103E-02     7.3333333333334294E-01     0.0000000000000000E+00 
    8.5000000000142184E-02     8.6666666666667158E-01     0.0000000000000000E+00 
    2.5499999999984352E-01     5.8333333333247239E-01     0.0000000000000000E+00 
    2.5499999999991479E-01     6.6666666666566776E-01     0.0000000000000000E+00 
    2.5499999999998618E-01     7.4999999999898259E-01     0.0000000000000000E+00 
    2.5500000000005768E-01     8.3333333333265114E-01     0.0000000000000000E+00 
    2.5500000000012918E-01     9.1666666666632035E-01     0.0000000000000000E+00 
    4.1999999999993048E-01     7.0833333333347026E-01     0.0000000000000000E+00 
    4.1999999999998350E-01     7.6666666666670036E-01     0.0000000000000000E+00 
    4.2000000000003651E-01     8.2500000000002793E-01     0.0000000000000000E+00 
    4.2000000000008941E-01     8.8333333333335529E-01     0.0000000000000000E+00 
    4.2000000000014232E-01     9.4166666666667220E-01     0.0000000000000000E+00 
    5.7999999999989571E-01     4.5833333333345377E-01     0.0000000000000000E+00 
    5.7999999999995566E-01     5.6666666666652898E-01     0.0000000000000000E+00 
    5.8000000000001539E-01     6.7499999999962579E-01     0.0000000000000000E+00 
    5.8000000000007534E-01     7.8333333333307675E-01     0.0000000000000000E+00 
    5.8000000000013530E-01     8.9166666666653849E-01     0.0000000000000000E+00 
    7.4499999999985511E-01     5.8333333333245319E-01     0.0000000000000000E+00 
    7.4499999999994526E-01     6.6666666666565277E-01     0.0000000000000000E+00 
    7.4500000000003486E-01     7.4999999999897116E-01     0.0000000000000000E+00 
    7.4500000000012456E-01     8.3333333333264370E-01     0.0000000000000000E+00 
    7.4500000000021416E-01     9.1666666666631658E-01     0.0000000000000000E+00 
    9.1499999999988413E-01     8.3333333333322490E-01     0.0000000000000000E+00 
    9.1499999999996384E-01     8.6666666666642811E-01     0.0000000000000000E+00 
    9.1500000000004356E-01     8.9999999999982638E-01     0.0000000000000000E+00 
    9.1500000000012305E-01     9.3333333333322477E-01     0.0000000000000000E+00 
    9.1500000000020254E-01     9.6666666666660150E-01     0.0000000000000000E+00 

CELLS 288 1152 

3 0 21 109 
3 109 52 0 
3 52 109 110 
3 110 51 52 
3 51 110 111 
3 111 50 51 
3 50 111 112 
3 112 49 50 
3 49 112 113 
3 113 48 49 
3 48 113 103 
3 103 11 48 
3 21 12 53 
3 53 109 21 
3 109 53 54 
3 54 110 109 
3 110 54 55 
3 55 111 110 
3 111 55 56 
3 56 112 111 
3 112 56 57 
3 57 113 112 
3 113 57 10 
3 10 103 113 
3 12 22 114 
3 114 53 12 
3 53 114 115 
3 115 54 53 
3 54 115 116 
3 116 55 54 
3 55 116 117 
3 117 56 55 
3 56 117 118 
3 118 57 56 
3 57 118 104 
3 104 10 57 
3 22 15 63 
3 63 114 22 
3 114 63 64 
3 64 115 114 
3 115 64 65 
3 65 116 115 
3 116 65 66 
3 66 117 116 
3 117 66 67 
3 67 118 117 
3 118 67 9 
3 9 104 118 
3 15 23 119 
3 119 63 15 
3 63 119 120 
3 120 64 63 
3 64 120 121 
3 121 65 64 
3 65 121 122 
3 122 66 65 
3 66 122 123 
3 123 67 66 
3 67 123 105 
3 105 9 67 
3 23 4 73 
3 73 119 23 
3 119 73 74 
3 74 120 119 
3 120 74 75 
3 75 121 120 
3 121 75 76 
3 76 122 121 
3 122 76 77 
3 77 123 122 
3 123 77 20 
3 20 105 123 
3 4 24 124 
3 124 73 4 
3 73 124 125 
3 125 74 73 
3 74 125 126 
3 126 75 74 
3 75 126 127 
3 127 76 75 
3 76 127 128 
3 128 77 76 
3 77 128 106 
3 106 20 77 
3 24 16 83 
3 83 124 24 
3 124 83 84 
3 84 125 124 
3 125 84 85 
3 85 126 125 
3 126 85 86 
3 86 127 126 
3 127 86 87 
3 87 128 127 
3 128 87 8 
3 8 106 128 
3 16 25 129 
3 129 83 16 
3 83 129 130 
3 130 84 83 
3 84 130 131 
3 131 85 84 
3 85 131 132 
3 132 86 85 
3 86 132 133 
3 133 87 86 
3 87 133 107 
3 107 8 87 
3 25 19 93 
3 93 129 25 
3 129 93 94 
3 94 130 129 
3 130 94 95 
3 95 131 130 
3 131 95 96 
3 96 132 131 
3 132 96 97 
3 97 133 132 
3 133 97 7 
3 7 107 133 
3 19 26 134 
3 134 93 19 
3 93 134 135 
3 135 94 93 
3 94 135 136 
3 136 95 94 
3 95 136 137 
3 137 96 95 
3 96 137 138 
3 138 97 96 
3 97 138 108 
3 108 7 97 
3 26 1 27 
3 27 134 26 
3 134 27 28 
3 28 135 134 
3 135 28 29 
3 29 136 135 
3 136 29 30 
3 30 137 136 
3 137 30 31 
3 31 138 137 
3 138 31 6 
3 6 108 138 
3 11 103 139 
3 139 47 11 
3 47 139 140 
3 140 46 47 
3 46 140 141 
3 141 45 46 
3 45 141 142 
3 142 44 45 
3 44 142 143 
3 143 43 44 
3 43 143 42 
3 42 3 43 
3 103 10 58 
3 58 139 103 
3 139 58 59 
3 59 140 139 
3 140 59 60 
3 60 141 140 
3 141 60 61 
3 61 142 141 
3 142 61 62 
3 62 143 142 
3 143 62 13 
3 13 42 143 
3 10 104 144 
3 144 58 10 
3 58 144 145 
3 145 59 58 
3 59 145 146 
3 146 60 59 
3 60 146 147 
3 147 61 60 
3 61 147 148 
3 148 62 61 
3 62 148 41 
3 41 13 62 
3 104 9 68 
3 68 144 104 
3 144 68 69 
3 69 145 144 
3 145 69 70 
3 70 146 145 
3 146 70 71 
3 71 147 146 
3 147 71 72 
3 72 148 147 
3 148 72 14 
3 14 41 148 
3 9 105 149 
3 149 68 9 
3 68 149 150 
3 150 69 68 
3 69 150 151 
3 151 70 69 
3 70 151 152 
3 152 71 70 
3 71 152 153 
3 153 72 71 
3 72 153 40 
3 40 14 72 
3 105 20 78 
3 78 149 105 
3 149 78 79 
3 79 150 149 
3 150 79 80 
3 80 151 150 
3 151 80 81 
3 81 152 151 
3 152 81 82 
3 82 153 152 
3 153 82 5 
3 5 40 153 
3 20 106 154 
3 154 78 20 
3 78 154 155 
3 155 79 78 
3 79 155 156 
3 156 80 79 
3 80 156 157 
3 157 81 80 
3 81 157 158 
3 158 82 81 
3 82 158 39 
3 39 5 82 
3 106 8 88 
3 88 154 106 
3 154 88 89 
3 89 155 154 
3 155 89 90 
3 90 156 155 
3 156 90 91 
3 91 157 156 
3 157 91 92 
3 92 158 157 
3 158 92 17 
3 17 39 158 
3 8 107 159 
3 159 88 8 
3 88 159 160 
3 160 89 88 
3 89 160 161 
3 161 90 89 
3 90 161 162 
3 162 91 90 
3 91 162 163 
3 163 92 91 
3 92 163 38 
3 38 17 92 
3 107 7 98 
3 98 159 107 
3 159 98 99 
3 99 160 159 
3 160 99 100 
3 100 161 160 
3 161 100 101 
3 101 162 161 
3 162 101 102 
3 102 163 162 
3 163 102 18 
3 18 38 163 
3 7 108 164 
3 164 98 7 
3 98 164 165 
3 165 99 98 
3 99 165 166 
3 166 100 99 
3 100 166 167 
3 167 101 100 
3 101 167 168 
3 168 102 101 
3 102 168 37 
3 37 18 102 
3 108 6 32 
3 32 164 108 
3 164 32 33 
3 33 165 164 
3 165 33 34 
3 34 166 165 
3 166 34 35 
3 35 167 166 
3 167 35 36 
3 36 168 167 
3 168 36 2 
3 2 37 168 

CELL_TYPES 288 

5 
5 
5 
5 
5 
5 
5 
5 
5 
5 
5 
5 
5 
5 
5 
5 
5 
5 
5 
5 
5 
5 
5 
5 
5 
5 
5 
5 
5 
5 
5 
5 
5 
5 
5 
5 
5 
5 
5 
5 
5 
5 
5 
5 
5 
5 
5 
5 
5 
5 
5 
5 
5 
5 
5 
5 
5 
5 
5 
5 
5 
5 
5 
5 
5 
5 
5 
5 
5 
5 
5 
5 
5 
5 
5 
5 
5 
5 
5 
5 
5 
5 
5 
5 
5 
5 
5 
5 
5 
5 
5 
5 
5 
5 
5 
5 
5 
5 
5 
5 
5 
5 
5 
5 
5 
5 
5 
5 
5 
5 
5 
5 
5 
5 
5 
5 
5 
5 
5 
5 
5 
5 
5 
5 
5 
5 
5 
5 
5 
5 
5 
5 
5 
5 
5 
5 
5 
5 
5 
5 
5 
5 
5 
5 
5 
5 
5 
5 
5 
5 
5 
5 
5 
5 
5 
5 
5 
5 
5 
5 
5 
5 
5 
5 
5 
5 
5 
5 
5 
5 
5 
5 
5 
5 
5 
5 
5 
5 
5 
5 
5 
5 
5 
5 
5 
5 
5 
5 
5 
5 
5 
5 
5 
5 
5 
5 
5 
5 
5 
5 
5 
5 
5 
5 
5 
5 
5 
5 
5 
5 
5 
5 
5 
5 
5 
5 
5 
5 
5 
5 
5 
5 
5 
5 
5 
5 
5 
5 
5 
5 
5 
5 
5 
5 
5 
5 
5 
5 
5 
5 
5 
5 
5 
5 
5 
5 
5 
5 
5 
5 
5 
5 
5 
5 
5 
5 
5 
5 
5 
5 
5 
5 
5 
5 
5 
5 
5 
5 
5 
5 
5 
5 
5 
5 
5 
5 
5 
5 
5 
5 
5 
5 
5 
5 
5 
5 
5 
5 

CELL_DATA 288 
SCALARS Pressure float 1 
LOOKUP_TABLE default 

    4.3421579140016063E-03 
    7.1540965804469218E-03 
    2.7272857962558128E-02 
    1.8608040531887127E-02 
    5.0071075882857911E-02 
    2.9928791445118369E-02 
    7.2442381859666852E-02 
    4.0887336401165271E-02 
    9.3713015716644477E-02 
    5.1143699091838316E-02 
    1.1318998495316823E-01 
    6.0677516101435416E-02 
    1.5474850424207357E-02 
    2.9895303280140995E-02 
    7.1592204804854176E-02 
    7.4277514925178381E-02 
    1.2699635696595268E-01 
    1.1919423809435596E-01 
    1.8197446313565321E-01 
    1.6359531004218680E-01 
    2.3470717763190968E-01 
    2.0492802635351237E-01 
    2.8214237237985246E-01 
    2.3877008344022793E-01 
    6.0651198093000749E-02 
    8.1270356432476695E-02 
    2.0832753467983348E-01 
    1.8486705020295185E-01 
    3.4278598289144807E-01 
    2.8137878120937376E-01 
    4.5533401859019706E-01 
    3.6671366880602707E-01 
    5.4262325215253038E-01 
    4.3964464864891939E-01 
    6.0474744147905968E-01 
    4.9812927862971951E-01 
    1.1615380777111702E-01 
    1.7858537106296271E-01 
    4.0706661584510012E-01 
    4.0896293594656025E-01 
    6.2642507535900438E-01 
    5.8080672897399610E-01 
    7.4915371551866228E-01 
    6.8317662087359443E-01 
    7.7755445806957235E-01 
    7.2150036237455584E-01 
    7.2276163980661834E-01 
    7.1145254381908429E-01 
    1.0526380580652041E-01 
    2.2841729411057446E-01 
    4.3277053473730931E-01 
    5.4608440905490929E-01 
    6.9402883225397216E-01 
    7.6572844694640996E-01 
    8.5615988363092355E-01 
    8.6643906817159122E-01 
    9.0975504916235206E-01 
    8.5534610437888525E-01 
    8.6271754886680063E-01 
    7.4002357221287274E-01 
    8.4522286314863984E-02 
    1.9409095282225988E-01 
    3.6009727637024647E-01 
    4.7997346332196106E-01 
    6.0413318712907316E-01 
    7.1503399576437343E-01 
    7.9590883463737394E-01 
    8.7590045784008852E-01 
    9.1904844331769975E-01 
    9.5125284984654856E-01 
    9.6761736711349533E-01 
    9.4441147732622810E-01 
    5.8229806047701227E-02 
    1.4400825953684041E-01 
    2.5779693896142941E-01 
    3.6723485787957882E-01 
    4.4750305181370215E-01 
    5.7006206002537929E-01 
    6.1769297792849120E-01 
    7.4153047067021838E-01 
    7.6095560172489740E-01 
    8.6948245274600711E-01 
    8.6985921940423827E-01 
    9.4249698039130714E-01 
    3.0561230005471444E-02 
    8.6455596481389937E-02 
    1.4325813806154403E-01 
    2.2886517324498754E-01 
    2.5495818438877782E-01 
    3.6742618675364547E-01 
    3.6298604439598009E-01 
    5.0172199219820135E-01 
    4.6748388223860093E-01 
    6.0894279758340031E-01 
    5.5039444026058137E-01 
    7.3294005215082880E-01 
    6.3481636972853722E-02 
    9.2097767951784024E-02 
    2.0866528952920077E-01 
    2.0819512838514811E-01 
    3.4166256139058687E-01 
    3.1563255057027356E-01 
    4.5453834484324918E-01 
    4.1149475462868307E-01 
    5.5168403629543883E-01 
    4.9935721358720592E-01 
    6.2144359338722188E-01 
    5.7254798462743262E-01 
    7.8247533289002233E-02 
    1.3973454244225991E-01 
    2.6133981111285659E-01 
    3.0743833793213177E-01 
    4.0352622366922580E-01 
    4.3991585427851310E-01 
    4.9923717216437075E-01 
    5.3577920593121087E-01 
    5.4691913366360478E-01 
    5.9499569398247565E-01 
    5.4458300434331053E-01 
    6.2017907999604027E-01 
    4.9121193373919542E-02 
    1.1747820498739590E-01 
    1.7338001176754456E-01 
    2.5446970300569755E-01 
    2.6461362521182541E-01 
    3.5089650187912674E-01 
    3.1881030876842714E-01 
    4.0190314948865846E-01 
    3.3395050858960129E-01 
    4.0558250828093401E-01 
    3.0134621604325607E-01 
    3.4628749529849034E-01 
    1.6427549297401606E-02 
    5.5043054323733048E-02 
    5.1172085068203185E-02 
    1.0832677064610209E-01 
    7.3560709716549558E-02 
    1.4901044420809037E-01 
    8.6007436954233490E-02 
    1.6942504522597052E-01 
    8.7095848374991791E-02 
    1.6814588234799166E-01 
    7.5241027703710689E-02 
    1.4158358825036824E-01 
    1.4215660908596714E-01 
    7.3097721761129400E-02 
    1.7112495966474922E-01 
    8.5334714957790533E-02 
    1.7153425257824712E-01 
    8.3778966970810401E-02 
    1.4734167440319604E-01 
    7.0450378868441410E-02 
    1.0372889209864752E-01 
    4.7710541903643752E-02 
    4.2521634917751648E-02 
    1.7148673795242590E-02 
    3.4926210578489181E-01 
    3.0588275975527629E-01 
    4.1950450210506091E-01 
    3.4454490566043283E-01 
    4.1779976758308834E-01 
    3.2774334968517066E-01 
    3.5876450043989999E-01 
    2.6669996532891632E-01 
    2.5532360376757418E-01 
    1.7104502376246641E-01 
    1.1952719408978724E-01 
    4.6140391726160142E-02 
    6.3571352484886623E-01 
    5.5616896198754084E-01 
    6.1783129085123589E-01 
    5.6730885311094736E-01 
    5.5177364079718538E-01 
    5.1395694174770989E-01 
    4.4710092450326300E-01 
    4.0943830600229575E-01 
    3.0990662099381083E-01 
    2.6315684901459635E-01 
    1.4426260337127042E-01 
    8.0050871634335385E-02 
    6.1632786389804006E-01 
    6.6974599848441674E-01 
    5.2177468667791627E-01 
    5.7592853134848321E-01 
    4.2595367608069101E-01 
    4.6846895771168784E-01 
    3.2489403745907319E-01 
    3.4969254610888817E-01 
    2.1487170667484898E-01 
    2.1486613247840455E-01 
    9.6373058178141735E-02 
    6.6650213638043077E-02 
    7.5087519387439772E-01 
    6.1229007174157812E-01 
    6.6928747232118446E-01 
    4.9472280252730350E-01 
    5.2634324958076573E-01 
    3.7946180105340194E-01 
    3.8237622015826483E-01 
    2.6686908140821003E-01 
    2.3926038271691147E-01 
    1.5090308397054700E-01 
    9.2175229836221992E-02 
    3.3401232773826908E-02 
    9.4793659243307782E-01 
    8.7854822227144103E-01 
    8.7954394952543336E-01 
    7.8547433856056570E-01 
    7.6182508178436181E-01 
    6.4288639507547862E-01 
    5.9038893110621948E-01 
    4.6401529951117115E-01 
    3.8104995919301748E-01 
    2.6840560647307632E-01 
    1.5258082396238576E-01 
    6.2978484995619505E-02 
    9.3721022766874396E-01 
    9.6653607327350310E-01 
    9.5021542128985315E-01 
    9.2348863411954496E-01 
    8.8213467357908670E-01 
    8.0872055068861592E-01 
    7.2838235733319812E-01 
    6.1975635925729333E-01 
    4.9414053141445202E-01 
    3.7218848074418720E-01 
    2.0490678994687164E-01 
    9.0852613896720266E-02 
    7.0785152308653065E-01 
    8.4665718575740923E-01 
    8.4111249493898099E-01 
    9.0307206635428361E-01 
    8.6179781765146013E-01 
    8.5841308526689764E-01 
    7.7033898171238735E-01 
    7.0398121291189797E-01 
    5.5757833093189080E-01 
    4.4427854191406968E-01 
    2.3973528605583716E-01 
    1.1232980421658860E-01 
    7.1374424403129522E-01 
    7.0547967979138793E-01 
    7.2168040274873113E-01 
    7.7567533182986537E-01 
    6.8749366656865674E-01 
    7.5302772030792409E-01 
    5.8786104278966178E-01 
    6.3403885505467494E-01 
    4.1728808806925916E-01 
    4.1626135659678448E-01 
    1.8499256225708444E-01 
    1.2268284770150022E-01 
    4.9812574742637955E-01 
    6.0511677340462500E-01 
    4.4195527226849635E-01 
    5.4495651682099688E-01 
    3.6996245651104026E-01 
    4.5926024610687544E-01 
    2.8457378157574403E-01 
    3.4719813601449934E-01 
    1.8731804086312961E-01 
    2.1193037866197359E-01 
    8.2678565520622915E-02 
    6.3108770956066693E-02 
    2.3866697259173678E-01 
    2.8322910403675305E-01 
    2.0588790714284202E-01 
    2.3633711785708408E-01 
    1.6457421264192876E-01 
    1.8360820652472734E-01 
    1.1992990899721093E-01 
    1.2818107629092065E-01 
    7.4650972124512216E-02 
    7.2232741585505147E-02 
    3.0072610808745990E-02 
    1.5933502237493343E-02 
    6.1126182677703235E-02 
    1.1392596367152119E-01 
    5.1720620940795339E-02 
    9.4585068029935368E-02 
    4.1421338538145572E-02 
    7.3192823343157978E-02 
    3.0326964831732316E-02 
    5.0583933923823612E-02 
    1.8843721742623717E-02 
    2.7543085924401581E-02 
    7.2606532869790904E-03 
    4.4820082065016951E-03 

