# vtk DataFile Version 2.0
Pressure Field Data 
ASCII 
DATASET UNSTRUCTURED_GRID 

POINTS 625 float 

    0.0000000000000000E+00     0.0000000000000000E+00     0.0000000000000000E+00 
    1.0000000000000000E+00     0.0000000000000000E+00     0.0000000000000000E+00 
    1.0000000000000000E+00     1.0000000000000000E+00     0.0000000000000000E+00 
    0.0000000000000000E+00     1.0000000000000000E+00     0.0000000000000000E+00 
    5.0000000000000000E-01     0.0000000000000000E+00     0.0000000000000000E+00 
    5.0000000000000000E-01     1.0000000000000000E+00     0.0000000000000000E+00 
    1.0000000000000000E+00     8.0000000000000004E-01     0.0000000000000000E+00 
    8.2999999999999996E-01     8.0000000000000004E-01     0.0000000000000000E+00 
    6.6000000000000003E-01     2.0000000000000001E-01     0.0000000000000000E+00 
    3.4000000000000002E-01     8.0000000000000004E-01     0.0000000000000000E+00 
    1.7000000000000001E-01     2.0000000000000001E-01     0.0000000000000000E+00 
    0.0000000000000000E+00     2.0000000000000001E-01     0.0000000000000000E+00 
    1.7000000000000001E-01     0.0000000000000000E+00     0.0000000000000000E+00 
    1.7000000000000001E-01     1.0000000000000000E+00     0.0000000000000000E+00 
    3.4000000000000002E-01     1.0000000000000000E+00     0.0000000000000000E+00 
    3.4000000000000002E-01     0.0000000000000000E+00     0.0000000000000000E+00 
    6.6000000000000003E-01     0.0000000000000000E+00     0.0000000000000000E+00 
    6.6000000000000003E-01     1.0000000000000000E+00     0.0000000000000000E+00 
    8.2999999999999996E-01     1.0000000000000000E+00     0.0000000000000000E+00 
    8.2999999999999996E-01     0.0000000000000000E+00     0.0000000000000000E+00 
    5.0000000000000000E-01     5.0000000000000000E-01     0.0000000000000000E+00 
    4.2499999999891437E-02     0.0000000000000000E+00     0.0000000000000000E+00 
    8.4999999999781806E-02     0.0000000000000000E+00     0.0000000000000000E+00 
    1.2749999999986300E-01     0.0000000000000000E+00     0.0000000000000000E+00 
    2.1249999999991481E-01     0.0000000000000000E+00     0.0000000000000000E+00 
    2.5499999999978301E-01     0.0000000000000000E+00     0.0000000000000000E+00 
    2.9749999999984478E-01     0.0000000000000000E+00     0.0000000000000000E+00 
    3.7999999999987238E-01     0.0000000000000000E+00     0.0000000000000000E+00 
    4.1999999999977228E-01     0.0000000000000000E+00     0.0000000000000000E+00 
    4.5999999999993740E-01     0.0000000000000000E+00     0.0000000000000000E+00 
    5.3999999999977888E-01     0.0000000000000000E+00     0.0000000000000000E+00 
    5.7999999999984830E-01     0.0000000000000000E+00     0.0000000000000000E+00 
    6.1999999999979627E-01     0.0000000000000000E+00     0.0000000000000000E+00 
    7.0249999999992419E-01     0.0000000000000000E+00     0.0000000000000000E+00 
    7.4499999999969624E-01     0.0000000000000000E+00     0.0000000000000000E+00 
    7.8749999999989995E-01     0.0000000000000000E+00     0.0000000000000000E+00 
    8.7249999999979977E-01     0.0000000000000000E+00     0.0000000000000000E+00 
    9.1499999999980464E-01     0.0000000000000000E+00     0.0000000000000000E+00 
    9.5749999999990232E-01     0.0000000000000000E+00     0.0000000000000000E+00 
    1.0000000000000000E+00     6.6666666666543181E-02     0.0000000000000000E+00 
    1.0000000000000000E+00     1.3333333333306890E-01     0.0000000000000000E+00 
    1.0000000000000000E+00     1.9999999999953880E-01     0.0000000000000000E+00 
    1.0000000000000000E+00     2.6666666666600858E-01     0.0000000000000000E+00 
    1.0000000000000000E+00     3.3333333333247861E-01     0.0000000000000000E+00 
    1.0000000000000000E+00     3.9999999999894842E-01     0.0000000000000000E+00 
    1.0000000000000000E+00     4.6666666666577089E-01     0.0000000000000000E+00 
    1.0000000000000000E+00     5.3333333333261779E-01     0.0000000000000000E+00 
    1.0000000000000000E+00     5.9999999999943576E-01     0.0000000000000000E+00 
    1.0000000000000000E+00     6.6666666666631980E-01     0.0000000000000000E+00 
    1.0000000000000000E+00     7.3333333333322526E-01     0.0000000000000000E+00 
    1.0000000000000000E+00     8.1666666666661247E-01     0.0000000000000000E+00 
    1.0000000000000000E+00     8.3333333333322490E-01     0.0000000000000000E+00 
    1.0000000000000000E+00     8.4999999999985187E-01     0.0000000000000000E+00 
    1.0000000000000000E+00     8.6666666666642811E-01     0.0000000000000000E+00 
    1.0000000000000000E+00     8.8333333333307928E-01     0.0000000000000000E+00 
    1.0000000000000000E+00     8.9999999999982638E-01     0.0000000000000000E+00 
    1.0000000000000000E+00     9.1666666666657370E-01     0.0000000000000000E+00 
    1.0000000000000000E+00     9.3333333333322477E-01     0.0000000000000000E+00 
    1.0000000000000000E+00     9.4999999999988782E-01     0.0000000000000000E+00 
    1.0000000000000000E+00     9.6666666666660150E-01     0.0000000000000000E+00 
    1.0000000000000000E+00     9.8333333333325779E-01     0.0000000000000000E+00 
    9.5750000000014102E-01     1.0000000000000000E+00     0.0000000000000000E+00 
    9.1500000000028214E-01     1.0000000000000000E+00     0.0000000000000000E+00 
    8.7250000000011796E-01     1.0000000000000000E+00     0.0000000000000000E+00 
    7.8750000000007581E-01     1.0000000000000000E+00     0.0000000000000000E+00 
    7.4500000000030375E-01     1.0000000000000000E+00     0.0000000000000000E+00 
    7.0250000000010004E-01     1.0000000000000000E+00     0.0000000000000000E+00 
    6.2000000000000421E-01     1.0000000000000000E+00     0.0000000000000000E+00 
    5.8000000000019514E-01     1.0000000000000000E+00     0.0000000000000000E+00 
    5.3999999999990611E-01     1.0000000000000000E+00     0.0000000000000000E+00 
    4.6000000000016161E-01     1.0000000000000000E+00     0.0000000000000000E+00 
    4.2000000000019527E-01     1.0000000000000000E+00     0.0000000000000000E+00 
    3.8000000000005962E-01     1.0000000000000000E+00     0.0000000000000000E+00 
    2.9750000000014343E-01     1.0000000000000000E+00     0.0000000000000000E+00 
    2.5500000000020051E-01     1.0000000000000000E+00     0.0000000000000000E+00 
    2.1250000000010610E-01     1.0000000000000000E+00     0.0000000000000000E+00 
    1.2750000000015690E-01     1.0000000000000000E+00     0.0000000000000000E+00 
    8.5000000000214265E-02     1.0000000000000000E+00     0.0000000000000000E+00 
    4.2500000000100652E-02     1.0000000000000000E+00     0.0000000000000000E+00 
    0.0000000000000000E+00     9.3333333333347901E-01     0.0000000000000000E+00 
    0.0000000000000000E+00     8.6666666666703562E-01     0.0000000000000000E+00 
    0.0000000000000000E+00     8.0000000000055338E-01     0.0000000000000000E+00 
    0.0000000000000000E+00     7.3333333333407114E-01     0.0000000000000000E+00 
    0.0000000000000000E+00     6.6666666666757801E-01     0.0000000000000000E+00 
    0.0000000000000000E+00     6.0000000000108500E-01     0.0000000000000000E+00 
    0.0000000000000000E+00     5.3333333333436705E-01     0.0000000000000000E+00 
    0.0000000000000000E+00     4.6666666666741158E-01     0.0000000000000000E+00 
    0.0000000000000000E+00     4.0000000000054869E-01     0.0000000000000000E+00 
    0.0000000000000000E+00     3.3333333333369503E-01     0.0000000000000000E+00 
    0.0000000000000000E+00     2.6666666666684280E-01     0.0000000000000000E+00 
    0.0000000000000000E+00     1.8333333333336979E-01     0.0000000000000000E+00 
    0.0000000000000000E+00     1.6666666666675889E-01     0.0000000000000000E+00 
    0.0000000000000000E+00     1.5000000000013841E-01     0.0000000000000000E+00 
    0.0000000000000000E+00     1.3333333333351780E-01     0.0000000000000000E+00 
    0.0000000000000000E+00     1.1666666666689590E-01     0.0000000000000000E+00 
    0.0000000000000000E+00     1.0000000000027399E-01     0.0000000000000000E+00 
    0.0000000000000000E+00     8.3333333333565171E-02     0.0000000000000000E+00 
    0.0000000000000000E+00     6.6666666666852920E-02     0.0000000000000000E+00 
    0.0000000000000000E+00     5.0000000000137192E-02     0.0000000000000000E+00 
    0.0000000000000000E+00     3.3333333333423747E-02     0.0000000000000000E+00 
    0.0000000000000000E+00     1.6666666666710711E-02     0.0000000000000000E+00 
    1.7000000000000001E-01     1.6666666666635799E-02     0.0000000000000000E+00 
    1.7000000000000001E-01     3.3333333333267212E-02     0.0000000000000000E+00 
    1.7000000000000001E-01     4.9999999999884692E-02     0.0000000000000000E+00 
    1.7000000000000001E-01     6.6666666666502158E-02     0.0000000000000000E+00 
    1.7000000000000001E-01     8.3333333333119639E-02     0.0000000000000000E+00 
    1.7000000000000001E-01     9.9999999999737105E-02     0.0000000000000000E+00 
    1.7000000000000001E-01     1.1666666666644269E-01     0.0000000000000000E+00 
    1.7000000000000001E-01     1.3333333333315450E-01     0.0000000000000000E+00 
    1.7000000000000001E-01     1.4999999999985891E-01     0.0000000000000000E+00 
    1.7000000000000001E-01     1.6666666666658000E-01     0.0000000000000000E+00 
    1.7000000000000001E-01     1.8333333333330629E-01     0.0000000000000000E+00 
    1.7000000000000001E-01     2.6666666666650590E-01     0.0000000000000000E+00 
    1.7000000000000001E-01     3.3333333333306081E-01     0.0000000000000000E+00 
    1.7000000000000001E-01     3.9999999999952068E-01     0.0000000000000000E+00 
    1.7000000000000001E-01     4.6666666666598061E-01     0.0000000000000000E+00 
    1.7000000000000001E-01     5.3333333333246213E-01     0.0000000000000000E+00 
    1.7000000000000001E-01     5.9999999999894360E-01     0.0000000000000000E+00 
    1.7000000000000001E-01     6.6666666666590801E-01     0.0000000000000000E+00 
    1.7000000000000001E-01     7.3333333333261463E-01     0.0000000000000000E+00 
[...]
CELL_DATA 576 
SCALARS Pressure float 1 
LOOKUP_TABLE default 

    1.9238265372028881E-03 
    5.7466533197272308E-03 
    1.7222302057242077E-02 
    5.7648436660501573E-03 
    9.5871517961497489E-03 
    2.8648024808618722E-02 
    3.9989455474925328E-02 
    1.3377956354659559E-02 
    1.7123166332688223E-02 
    5.1207176759703113E-02 
    6.2254608726466439E-02 
    2.0806983745019735E-02 
    2.4411790142174129E-02 
    7.3077305152258493E-02 
    8.3613714161217212E-02 
    2.7918383439927190E-02 
    3.1306558497081589E-02 
    9.3797405039353646E-02 
    1.0356088200080957E-01 
    3.4555962569621158E-02 
    3.7647042804999094E-02 
    1.1284126130067924E-01 
    1.2158805122608121E-01 
    4.0561655296445856E-02 
    9.4837925416318379E-03 
    1.3046776777313673E-02 
    3.9095361153381233E-02 
    2.8426471703699122E-02 
    4.7304089028370820E-02 
    6.5035760141550991E-02 
    9.0958245316400274E-02 
    6.6081118448148915E-02 
    8.4707532417174006E-02 
    1.1685296342597934E-01 
    1.4263565970816031E-01 
    1.0311138704937860E-01 
    1.2119712229971673E-01 
    1.6816282323362075E-01 
    1.9324068654927964E-01 
    1.3884685125018315E-01 
    1.5592353871606174E-01 
    2.1762862558123727E-01 
    2.4103237996625176E-01 
    1.7227618236160083E-01 
    1.8774905428402860E-01 
    2.6307979329137887E-01 
    2.8326680232387724E-01 
    2.0220075706048385E-01 
    2.1987014332835716E-02 
    3.9259961114939700E-02 
    1.1725808062863455E-01 
    6.5995239821623100E-02 
    1.1003261368193092E-01 
    1.9347740449188461E-01 
    2.6642112368858811E-01 
    1.5380385646008776E-01 
    1.9674634283472522E-01 
    3.3479346331782495E-01 
    3.9713204004822639E-01 
    2.3830200170326127E-01 
    2.7792837758612854E-01 
    4.5236409929565280E-01 
    4.9982894150027901E-01 
    3.1514093879985555E-01 
    3.4952707918413267E-01 
    5.3924032138509770E-01 
    5.7060085571363550E-01 
    3.8073375103385459E-01 
    4.0843615038805081E-01 
    5.9412624987445328E-01 
    6.1019588975488870E-01 
    4.3229114085019671E-01 
    5.9026842721281607E-02 
    8.0823506772899040E-02 
    2.3871184836437290E-01 
    1.7538785373052410E-01 
    2.8647502762362326E-01 
    3.8542802225311557E-01 
    5.1429053903510857E-01 
    3.8868610009420446E-01 
    4.7885371082859185E-01 
    6.2018882438418610E-01 
    7.0003873885495882E-01 
    5.5482602277463600E-01 
    6.1525959829196286E-01 
    7.5277761747244620E-01 
    7.7908822820143708E-01 
    6.5984473648671516E-01 
    6.8895871145986398E-01 
    7.8034783414623377E-01 
    7.5834896369852733E-01 
    7.0337984476042215E-01 
    7.0408376917553761E-01 
    7.1505244409718527E-01 
    6.5238024635034109E-01 
    6.9203236620912345E-01 
    9.0882065694434216E-02 
    8.5817955566878976E-02 
    2.5409074157035239E-01 
    2.6809160953446565E-01 
    4.3200982513583902E-01 
    4.1247773343426147E-01 
    5.5503323953042083E-01 
    5.7495150636142289E-01 
    6.9117661100049732E-01 
    6.7687507847872075E-01 
    7.7458759547838962E-01 
    7.7747700568158440E-01 
    8.3311341164591701E-01 
    8.4636146059944284E-01 
    8.9143334253983808E-01 
    8.5796898449933212E-01 
    8.5312195531368362E-01 
    9.0993328734687662E-01 
    9.0267037577944331E-01 
    8.2025031550935390E-01 
    7.6127027466426733E-01 
    8.7078095278888423E-01 
    8.1572776024181493E-01 
    6.7784161705016566E-01 
    7.8994364767316250E-02 
    7.0672441892519214E-02 
    2.1033446927574526E-01 
    2.3455359472044265E-01 
    3.8299471963686810E-01 
    3.4511515227198530E-01 
    4.7188474590424767E-01 
    5.1989691878337330E-01 
    6.4138808411058379E-01 
    5.8774460177273324E-01 
    6.9022173513146767E-01 
    7.4442034117277134E-01 
    8.2694153096952383E-01 
    7.7744019920732843E-01 
    8.4812942812249337E-01 
    8.8779497057823487E-01 
    9.2657441576755639E-01 
    9.0168573615345615E-01 
    9.3797772827754022E-01 
    9.4338617911721223E-01 
    9.3880600350500099E-01 
    9.5715867597225324E-01 
    9.5956050761005329E-01 
    9.1357148129250620E-01 
    6.1173672449802492E-02 
    5.0838645651485673E-02 
    1.5192011921547871E-01 
    1.8243988614226989E-01 
    3.0061407559189229E-01 
    2.5131681029232794E-01 
    3.4781042723313643E-01 
    4.1362731035350181E-01 
    5.1943660859883056E-01 
    4.4008632015185833E-01 
    5.2680371176118435E-01 
    6.1615754844077075E-01 
    7.0219405969246906E-01 
    6.0674066802753901E-01 
    6.7882153627635333E-01 
    7.7644322200739835E-01 
    8.3818379152169697E-01 
    7.4226474718513069E-01 
    7.9664760553479452E-01 
    8.8714815160847704E-01 
    9.2340309031968892E-01 
    8.4193257472682193E-01 
    8.7842140528148827E-01 
    9.4719774739380425E-01 
    3.9986106338259997E-02 
    2.8882216272838719E-02 
    8.6708373476306874E-02 
    1.1974812167527780E-01 
    1.9889289375482780E-01 
    1.4468376641239894E-01 
    2.0263220240508900E-01 
    2.7685114952401274E-01 
    3.5293372695766206E-01 
    2.6025581676130716E-01 
    3.1717277892321943E-01 
    4.2633711853770362E-01 
    4.9614230852084751E-01 
    3.7291862298983153E-01 
    4.2694311634454413E-01 
    5.6141890735488142E-01 
    6.2129964039584795E-01 
    4.7861685059660053E-01 
    5.2721945252138580E-01 
    6.7506488369427753E-01 
    7.2225051573222965E-01 
    5.7188140441871982E-01 
    6.1143549735038483E-01 
    7.6282802847330733E-01 
    3.0944444297292921E-02 
    4.2462285996442445E-02 
    1.2675218828362050E-01 
    9.2703386394377210E-02 
    1.5374427459640100E-01 
    2.0891155693017380E-01 
    2.8753268492048478E-01 
    2.1367031937828335E-01 
    2.7217234080665459E-01 
    3.6105939763989819E-01 
    4.2834604543773769E-01 
    3.2878156748058773E-01 
    3.8299205858512059E-01 
    4.8851008315090605E-01 
    5.4104445995996009E-01 
    4.3432795333501811E-01 
    4.8237208138653753E-01 
    5.8578306808819602E-01 
    6.2281865056021513E-01 
    5.2675483616852425E-01 
    5.6711321794985226E-01 
    6.5245245253156658E-01 
    6.7519442384318185E-01 
    6.0301929760224093E-01 
    4.9911848469604676E-02 
    5.2806312299132366E-02 
    1.5602302700401832E-01 
    1.4831170566035642E-01 
    2.4231262394894049E-01 
    2.5221064668900073E-01 
    3.3727893799888992E-01 
    3.2914891497012982E-01 
    4.0648854263709777E-01 
    4.0813460158124248E-01 
    4.6300394665197314E-01 
    4.7242144531901092E-01 
    5.2612531777909066E-01 
    5.0113596501833391E-01 
    5.2331842129927042E-01 
    5.6753909933072677E-01 
    5.9699956099493923E-01 
    5.3007016731307666E-01 
    5.2185315461382908E-01 
    6.1498133849679915E-01 
    6.2196683236688266E-01 
    4.9899006657026351E-01 
    4.6154407387352669E-01 
    6.1828291695390325E-01 
    4.5849998266746378E-02 
    3.3374627394630561E-02 
    9.8313655519865428E-02 
    1.3504466013964156E-01 
    2.1714124330288123E-01 
    1.5823174454756911E-01 
    2.1034078766845604E-01 
    2.8819597367217276E-01 
    3.4541911376940387E-01 
    2.5259680576453014E-01 
    2.8390091431310260E-01 
    3.8751188202222747E-01 
    4.1497903750325305E-01 
    3.0405862537576833E-01 
    3.1266933150966703E-01 
    4.2689545630736470E-01 
    4.2330992906340381E-01 
    3.0968688269584921E-01 
    2.9519683833202420E-01 
    4.0445198074715344E-01 
    3.7029194726251191E-01 
    2.6911901394926752E-01 
    2.3089463319299364E-01 
    3.2018474915290412E-01 
    2.0347072308685193E-02 
    6.9384135950871549E-03 
    2.0420216999625349E-02 
    5.9922658612487925E-02 
    9.6484339524053636E-02 
    3.2875568792182633E-02 
    4.3738794032863335E-02 
    1.2836318762746052E-01 
    1.5430172470848155E-01 
    5.2575340144265806E-02 
    5.9121073368257317E-02 
    1.7356285139608144E-01 
    1.8587585700405765E-01 
    6.3266114448623456E-02 
    6.4954143364439235E-02 
    1.9104344217417629E-01 
    1.8902830800622622E-01 
    6.4180949536749354E-02 
    6.0964598863599881E-02 
    1.7986306614567915E-01 
    1.6348639216137364E-01 
    5.5290982711794633E-02 
    4.7049556657595776E-02 
    1.3956636913001760E-01 
    4.7499450988924677E-02 
    1.4203550203518645E-01 
    1.6584274500107565E-01 
    5.5575377760428174E-02 
    6.0947382566646016E-02 
    1.8161081344063248E-01 
    1.8988798060292714E-01 
    6.3775036099084650E-02 
    6.4149979703910912E-02 
    1.9094965939082628E-01 
    1.8495518708830513E-01 
    6.2130984015206725E-02 
    5.7787205622350041E-02 
    1.7208655984105356E-01 
    1.5267552738094017E-01 
    5.1234149439674276E-02 
    4.2599027081786978E-02 
    1.2705341936715436E-01 
    9.5740940687927975E-02 
    3.2072588316835147E-02 
    2.0001368079894020E-02 
    5.9760316653322355E-02 
    2.0715531779371753E-02 
    6.9225994486732797E-03 
    2.3541214221579754E-01 
    3.2706624865546596E-01 
    3.7721964581856382E-01 
    2.7361213133828233E-01 
    2.9882840742479122E-01 
    4.1034353666611356E-01 
    4.2754332477912921E-01 
    3.1200466851161779E-01 
    3.1355927701911362E-01 
    4.2928596353819720E-01 
    4.1574342087678995E-01 
    3.0370088610922708E-01 
    2.8266358299107042E-01 
    3.8708146479949146E-01 
    3.4418554786957162E-01 
    2.5100563552194233E-01 
    2.0914530982880192E-01 
    2.8733655893786136E-01 
    2.1716008444393889E-01 
    1.5779034439864942E-01 
    9.8582104231555973E-02 
    1.3583662101110880E-01 
    4.7088911446865570E-02 
    3.4184440972645051E-02 
    4.6842245159100915E-01 
    6.2125409817584920E-01 
    6.2281960686187399E-01 
    5.0437520430724436E-01 
    5.2512582114008821E-01 
    6.1391771105136783E-01 
    5.9438486460126094E-01 
    5.3096154859966516E-01 
    5.2194212042996924E-01 
    5.6389005209936882E-01 
    5.2211189634257626E-01 
    4.9798072965554963E-01 
    4.5895945702021063E-01 
    4.6883809085149192E-01 
    4.0407523776914533E-01 
    4.0463559303532709E-01 
    3.3520467543201965E-01 
    3.2826612435110913E-01 
    2.4269182701986278E-01 
    2.5181805202518659E-01 
    1.5685417791406245E-01 
    1.4942036786393861E-01 
    5.1158958014378662E-02 
    5.4160662611891904E-02 
    6.7122271568533853E-01 
    5.9663882424545323E-01 
    5.6177716370351538E-01 
    6.4792962565275880E-01 
    6.1816205492386078E-01 
    5.2245649753691370E-01 
    4.7908170832626085E-01 
    5.8132186429148558E-01 
    5.3708879362595607E-01 
    4.3199978973274894E-01 
    3.8155216804870151E-01 
    4.8536124742543019E-01 
    4.2624805943936006E-01 
    3.2810777356619442E-01 
    2.7208395099101290E-01 
    3.6010439666139848E-01 
    2.8759605742361999E-01 
    2.1394789718895493E-01 
    1.5417909399479432E-01 
    2.0970236215755128E-01 
    1.2778835508286979E-01 
    9.3216534921292893E-02 
    3.1419393833347381E-02 
    4.3391454911428172E-02 
    6.0929923791057550E-01 
    7.6045851658960906E-01 
    7.2020339968091762E-01 
    5.7019330540484148E-01 
    5.2600474817519383E-01 
    6.7343566642005193E-01 
    6.2007509176451647E-01 
    4.7784601740184468E-01 
    4.2654389772012685E-01 
    5.6052781337956514E-01 
    4.9548842465886350E-01 
    3.7279254668263762E-01 
    3.1721523741691338E-01 
    4.2583077162899385E-01 
    3.5252612771057490E-01 
    2.6038018149548275E-01 
    2.0279792823591392E-01 
    2.7653865152174761E-01 
    1.9871241228264780E-01 
    1.4492044028198070E-01 
    8.6983318133344964E-02 
    1.1977015282844632E-01 
    4.0280811652784888E-02 
    2.9156449239247068E-02 
    8.7696383657995214E-01 
    9.4658718029682265E-01 
    9.2257514713301025E-01 
    8.4051174313107069E-01 
    7.9548799176234364E-01 
    8.8634844524758993E-01 
    8.3761468016720242E-01 
    7.4146512850113977E-01 
    6.7837094809790244E-01 
    7.7621495398464158E-01 
    7.0230902711106813E-01 
    6.0655262341048977E-01 
    5.2676211372488146E-01 
    6.1652465926593836E-01 
    5.1994091289488487E-01 
    4.4008786585771231E-01 
    3.4782096663667261E-01 
    4.1416979223287970E-01 
    3.0117392182413527E-01 
    2.5138279017305343E-01 
    1.5214441571783791E-01 
    1.8307886029740630E-01 
    6.2005810693052756E-02 
    5.1345839114798217E-02 
    9.5978745114185926E-01 
    9.1486152456628189E-01 
    9.3944298504382395E-01 
    9.5693847219763140E-01 
    9.3748862540553179E-01 
    9.4341796388228794E-01 
    9.2617169157970880E-01 
    9.0116547183080664E-01 
    8.4778697831378746E-01 
    8.8732834627052726E-01 
    8.2669791937563297E-01 
    7.7746653462427617E-01 
    6.9066571054806258E-01 
    7.4462001035906544E-01 
    6.4209666912698971E-01 
    5.8851662908142233E-01 
    4.7284756374222225E-01 
    5.2102241826045692E-01 
    3.8437383350885174E-01 
    3.4616101642000863E-01 
    2.1143319265641705E-01 
    2.3604684339029075E-01 
    8.0546402084852281E-02 
    7.1871868406670425E-02 
    8.1845649491459471E-01 
    6.8171540169101186E-01 
    7.6471661112472877E-01 
    8.7271854508154190E-01 
    9.0367842147812816E-01 
    8.2275943830516696E-01 
    8.5436247026575518E-01 
    9.1011165513160819E-01 
    8.9103267170682710E-01 
    8.5797946795443769E-01 
    8.3228863501344619E-01 
    8.4578977534796718E-01 
    7.7428177634945039E-01 
    7.7643531111856801E-01 
    6.9063259758263140E-01 
    6.7716005214982056E-01 
    5.5597848369068359E-01 
    5.7528298220740459E-01 
    4.3320395444727994E-01 
    4.1393827114055720E-01 
    2.5582984470970466E-01 
    2.6985308028957750E-01 
    9.2859510373228232E-02 
    8.7652627015649923E-02 
    6.5975761272205602E-01 
    6.9464219623956236E-01 
    7.0499322995447722E-01 
    7.2229649385637351E-01 
    7.6444030645422623E-01 
    7.0286580481277638E-01 
    6.8735533261424497E-01 
    7.8475235353107298E-01 
    7.8172349340161940E-01 
    6.5755003983046312E-01 
    6.1271913023030067E-01 
    7.5394728093229357E-01 
    7.0031463161035523E-01 
    5.5248745181418824E-01 
    4.7708917640030091E-01 
    6.2022651301186682E-01 
    5.1463019954717248E-01 
    3.8770910217279031E-01 
    2.8632463855569557E-01 
    3.8633097194346955E-01 
    2.4012147981447440E-01 
    1.7590456176271377E-01 
    5.9952435785912264E-02 
    8.2492732149135661E-02 
    6.0573824675227672E-01 
    4.2546008732191148E-01 
    4.0198744389668989E-01 
    5.8874290935341556E-01 
    5.6489014731401466E-01 
    3.7485113194559949E-01 
    3.4433142687242191E-01 
    5.3363743817420972E-01 
    4.9466959468148830E-01 
    3.1070661614083545E-01 
    2.7428817975070890E-01 
    4.4791060279909506E-01 
    3.9356930558122311E-01 
    2.3544638674348528E-01 
    1.9462352174572370E-01 
    3.3220788052663608E-01 
    2.6478374401006677E-01 
    1.5232739874476742E-01 
    1.0910244183132417E-01 
    1.9264338705025130E-01 
    1.1707826075234141E-01 
    6.5523515925795611E-02 
    2.1939872179363076E-02 
    3.9560194944521412E-02 
    2.7776861887244836E-01 
    1.9826401561601650E-01 
    1.8420665163668809E-01 
    2.5833435204394289E-01 
    2.3694471669736888E-01 
    1.6913121831526015E-01 
    1.5316629801498816E-01 
    2.1413614864084804E-01 
    1.9029371234619016E-01 
    1.3646148836220909E-01 
    1.1916535283679534E-01 
    1.6571488884472302E-01 
    1.4064067937503721E-01 
    1.0141509843470112E-01 
    8.3331166736850343E-02 
    1.1526733014117899E-01 
    8.9746139570516192E-02 
    6.5014000645781014E-02 
    4.6542486599547392E-02 
    6.4175726357636576E-02 
    3.8586265070168359E-02 
    2.7975070358099669E-02 
    9.3565142009543883E-03 
    1.2915510926606357E-02 
    1.1943524287198104E-01 
    4.0255449047467980E-02 
    3.7327848293820916E-02 
    1.1085484397931251E-01 
    1.0175901002185447E-01 
    3.4247274408425586E-02 
    3.1020824826413031E-02 
    9.2189012193204314E-02 
    8.2200932356333703E-02 
    2.7661628783616384E-02 
    2.4186487179353899E-02 
    7.1858140742150189E-02 
    6.1225343817394078E-02 
    2.0613915376691078E-02 
    1.6962655114164386E-02 
    5.0364362035680052E-02 
    3.9331478517555092E-02 
    1.3250666616579324E-02 
    9.4945823491488224E-03 
    2.8176254239308078E-02 
    1.6941815779007184E-02 
    5.7095809578633881E-03 
    1.9095983150246212E-03 
    5.6665899577569463E-03 

