# vtk DataFile Version 2.0
Pressure Field Data 
ASCII 
DATASET UNSTRUCTURED_GRID 

POINTS 169 float 

    0.0000000000000000E+00     0.0000000000000000E+00     0.0000000000000000E+00 
    1.0000000000000000E+00     0.0000000000000000E+00     0.0000000000000000E+00 
    1.0000000000000000E+00     1.0000000000000000E+00     0.0000000000000000E+00 
    0.0000000000000000E+00     1.0000000000000000E+00     0.0000000000000000E+00 
    5.0000000000000000E-01     0.0000000000000000E+00     0.0000000000000000E+00 
    5.0000000000000000E-01     1.0000000000000000E+00     0.0000000000000000E+00 
    1.0000000000000000E+00     8.0000000000000004E-01     0.0000000000000000E+00 
    8.2999999999999996E-01     8.0000000000000004E-01     0.0000000000000000E+00 
    6.6000000000000003E-01     2.0000000000000001E-01     0.0000000000000000E+00 
    3.4000000000000002E-01     8.0000000000000004E-01     0.0000000000000000E+00 
    1.7000000000000001E-01     2.0000000000000001E-01     0.0000000000000000E+00 
    0.0000000000000000E+00     2.0000000000000001E-01     0.0000000000000000E+00 
    1.7000000000000001E-01     0.0000000000000000E+00     0.0000000000000000E+00 
    1.7000000000000001E-01     1.0000000000000000E+00     0.0000000000000000E+00 
    3.4000000000000002E-01     1.0000000000000000E+00     0.0000000000000000E+00 
    3.4000000000000002E-01     0.0000000000000000E+00     0.0000000000000000E+00 
    6.6000000000000003E-01     0.0000000000000000E+00     0.0000000000000000E+00 
    6.6000000000000003E-01     1.0000000000000000E+00     0.0000000000000000E+00 
    8.2999999999999996E-01     1.0000000000000000E+00     0.0000000000000000E+00 
    8.2999999999999996E-01     0.0000000000000000E+00     0.0000000000000000E+00 
    5.0000000000000000E-01     5.0000000000000000E-01     0.0000000000000000E+00 
    8.4999999999781806E-02     0.0000000000000000E+00     0.0000000000000000E+00 
    2.5499999999978301E-01     0.0000000000000000E+00     0.0000000000000000E+00 
    4.1999999999977228E-01     0.0000000000000000E+00     0.0000000000000000E+00 
    5.7999999999984830E-01     0.0000000000000000E+00     0.0000000000000000E+00 
    7.4499999999969624E-01     0.0000000000000000E+00     0.0000000000000000E+00 
    9.1499999999980464E-01     0.0000000000000000E+00     0.0000000000000000E+00 
    1.0000000000000000E+00     1.3333333333306890E-01     0.0000000000000000E+00 
    1.0000000000000000E+00     2.6666666666600858E-01     0.0000000000000000E+00 
    1.0000000000000000E+00     3.9999999999894842E-01     0.0000000000000000E+00 
    1.0000000000000000E+00     5.3333333333261779E-01     0.0000000000000000E+00 
    1.0000000000000000E+00     6.6666666666631980E-01     0.0000000000000000E+00 
    1.0000000000000000E+00     8.3333333333322490E-01     0.0000000000000000E+00 
    1.0000000000000000E+00     8.6666666666642811E-01     0.0000000000000000E+00 
    1.0000000000000000E+00     8.9999999999982638E-01     0.0000000000000000E+00 
    1.0000000000000000E+00     9.3333333333322477E-01     0.0000000000000000E+00 
    1.0000000000000000E+00     9.6666666666660150E-01     0.0000000000000000E+00 
    9.1500000000028214E-01     1.0000000000000000E+00     0.0000000000000000E+00 
    7.4500000000030375E-01     1.0000000000000000E+00     0.0000000000000000E+00 
    5.8000000000019514E-01     1.0000000000000000E+00     0.0000000000000000E+00 
    4.2000000000019527E-01     1.0000000000000000E+00     0.0000000000000000E+00 
    2.5500000000020051E-01     1.0000000000000000E+00     0.0000000000000000E+00 
    8.5000000000214265E-02     1.0000000000000000E+00     0.0000000000000000E+00 
    0.0000000000000000E+00     8.6666666666703562E-01     0.0000000000000000E+00 
    0.0000000000000000E+00     7.3333333333407114E-01     0.0000000000000000E+00 
    0.0000000000000000E+00     6.0000000000108500E-01     0.0000000000000000E+00 
    0.0000000000000000E+00     4.6666666666741158E-01     0.0000000000000000E+00 
    0.0000000000000000E+00     3.3333333333369503E-01     0.0000000000000000E+00 
    0.0000000000000000E+00     1.6666666666675889E-01     0.0000000000000000E+00 
    0.0000000000000000E+00     1.3333333333351780E-01     0.0000000000000000E+00 
    0.0000000000000000E+00     1.0000000000027399E-01     0.0000000000000000E+00 
    0.0000000000000000E+00     6.6666666666852920E-02     0.0000000000000000E+00 
    0.0000000000000000E+00     3.3333333333423747E-02     0.0000000000000000E+00 
    1.7000000000000001E-01     3.3333333333267212E-02     0.0000000000000000E+00 
    1.7000000000000001E-01     6.6666666666502158E-02     0.0000000000000000E+00 
    1.7000000000000001E-01     9.9999999999737105E-02     0.0000000000000000E+00 
    1.7000000000000001E-01     1.3333333333315450E-01     0.0000000000000000E+00 
    1.7000000000000001E-01     1.6666666666658000E-01     0.0000000000000000E+00 
    1.7000000000000001E-01     3.3333333333306081E-01     0.0000000000000000E+00 
    1.7000000000000001E-01     4.6666666666598061E-01     0.0000000000000000E+00 
    1.7000000000000001E-01     5.9999999999894360E-01     0.0000000000000000E+00 
    1.7000000000000001E-01     7.3333333333261463E-01     0.0000000000000000E+00 
    1.7000000000000001E-01     8.6666666666630743E-01     0.0000000000000000E+00 
    3.4000000000000002E-01     1.3333333333306890E-01     0.0000000000000000E+00 
    3.4000000000000002E-01     2.6666666666600858E-01     0.0000000000000000E+00 
    3.4000000000000002E-01     3.9999999999894842E-01     0.0000000000000000E+00 
    3.4000000000000002E-01     5.3333333333261779E-01     0.0000000000000000E+00 
    3.4000000000000002E-01     6.6666666666631980E-01     0.0000000000000000E+00 
    3.4000000000000002E-01     8.3333333333322490E-01     0.0000000000000000E+00 
    3.4000000000000002E-01     8.6666666666642811E-01     0.0000000000000000E+00 
    3.4000000000000002E-01     8.9999999999982638E-01     0.0000000000000000E+00 
    3.4000000000000002E-01     9.3333333333322477E-01     0.0000000000000000E+00 
    3.4000000000000002E-01     9.6666666666660150E-01     0.0000000000000000E+00 
    5.0000000000000000E-01     8.3333333333160439E-02     0.0000000000000000E+00 
    5.0000000000000000E-01     1.6666666666625049E-01     0.0000000000000000E+00 
    5.0000000000000000E-01     2.4999999999934600E-01     0.0000000000000000E+00 
    5.0000000000000000E-01     3.3333333333289372E-01     0.0000000000000000E+00 
    5.0000000000000000E-01     4.1666666666644692E-01     0.0000000000000000E+00 
    5.0000000000000000E-01     5.8333333333333337E-01     0.0000000000000000E+00 
    5.0000000000000000E-01     6.6666666666666663E-01     0.0000000000000000E+00 
    5.0000000000000000E-01     7.5000000000000000E-01     0.0000000000000000E+00 
    5.0000000000000000E-01     8.3333333333333326E-01     0.0000000000000000E+00 
    5.0000000000000000E-01     9.1666666666666663E-01     0.0000000000000000E+00 
    6.6000000000000003E-01     3.3333333333267212E-02     0.0000000000000000E+00 
    6.6000000000000003E-01     6.6666666666502158E-02     0.0000000000000000E+00 
    6.6000000000000003E-01     9.9999999999737105E-02     0.0000000000000000E+00 
    6.6000000000000003E-01     1.3333333333315450E-01     0.0000000000000000E+00 
    6.6000000000000003E-01     1.6666666666658000E-01     0.0000000000000000E+00 
    6.6000000000000003E-01     3.3333333333306081E-01     0.0000000000000000E+00 
    6.6000000000000003E-01     4.6666666666598061E-01     0.0000000000000000E+00 
    6.6000000000000003E-01     5.9999999999894360E-01     0.0000000000000000E+00 
    6.6000000000000003E-01     7.3333333333261463E-01     0.0000000000000000E+00 
    6.6000000000000003E-01     8.6666666666630743E-01     0.0000000000000000E+00 
    8.2999999999999996E-01     1.3333333333306890E-01     0.0000000000000000E+00 
    8.2999999999999996E-01     2.6666666666600858E-01     0.0000000000000000E+00 
    8.2999999999999996E-01     3.9999999999894842E-01     0.0000000000000000E+00 
    8.2999999999999996E-01     5.3333333333261779E-01     0.0000000000000000E+00 
    8.2999999999999996E-01     6.6666666666631980E-01     0.0000000000000000E+00 
    8.2999999999999996E-01     8.3333333333322490E-01     0.0000000000000000E+00 
    8.2999999999999996E-01     8.6666666666642811E-01     0.0000000000000000E+00 
    8.2999999999999996E-01     8.9999999999982638E-01     0.0000000000000000E+00 
    8.2999999999999996E-01     9.3333333333322477E-01     0.0000000000000000E+00 
    8.2999999999999996E-01     9.6666666666660150E-01     0.0000000000000000E+00 
    8.4999999999781806E-02     2.0000000000000001E-01     0.0000000000000000E+00 
    2.5499999999977202E-01     4.9999999999919531E-01     0.0000000000000000E+00 
    4.1999999999987758E-01     6.5000000000022951E-01     0.0000000000000000E+00 
    5.7999999999983576E-01     3.5000000000030801E-01     0.0000000000000000E+00 
    7.4499999999976552E-01     4.9999999999917250E-01     0.0000000000000000E+00 
    9.1499999999980464E-01     8.0000000000000004E-01     0.0000000000000000E+00 
    8.4999999999781806E-02     3.3333333333345483E-02     0.0000000000000000E+00 
    8.4999999999781820E-02     6.6666666666677546E-02     0.0000000000000000E+00 
    8.4999999999781806E-02     1.0000000000000550E-01     0.0000000000000000E+00 
    8.4999999999781806E-02     1.3333333333333611E-01     0.0000000000000000E+00 
    8.4999999999781806E-02     1.6666666666666941E-01     0.0000000000000000E+00 
    2.5499999999978118E-01     8.3333333333033915E-02     0.0000000000000000E+00 
    2.5499999999977929E-01     1.6666666666598720E-01     0.0000000000000000E+00 
    2.5499999999977740E-01     2.4999999999894040E-01     0.0000000000000000E+00 
    2.5499999999977557E-01     3.3333333333234971E-01     0.0000000000000000E+00 
    2.5499999999977391E-01     4.1666666666577912E-01     0.0000000000000000E+00 
    4.1999999999978971E-01     1.0833333333315290E-01     0.0000000000000000E+00 
    4.1999999999980731E-01     2.1666666666620610E-01     0.0000000000000000E+00 
    4.1999999999982501E-01     3.2499999999926188E-01     0.0000000000000000E+00 
    4.1999999999984239E-01     4.3333333333290880E-01     0.0000000000000000E+00 
    4.1999999999985999E-01     5.4166666666657448E-01     0.0000000000000000E+00 
    5.7999999999984608E-01     5.8333333333265167E-02     0.0000000000000000E+00 
    5.7999999999984408E-01     1.1666666666647900E-01     0.0000000000000000E+00 
    5.7999999999984186E-01     1.7499999999969559E-01     0.0000000000000000E+00 
    5.7999999999983987E-01     2.3333333333322939E-01     0.0000000000000000E+00 
    5.7999999999983787E-01     2.9166666666677010E-01     0.0000000000000000E+00 
    7.4499999999970790E-01     8.3333333333030127E-02     0.0000000000000000E+00 
    7.4499999999971933E-01     1.6666666666597951E-01     0.0000000000000000E+00 
    7.4499999999973099E-01     2.4999999999892900E-01     0.0000000000000000E+00 
    7.4499999999974242E-01     3.3333333333233439E-01     0.0000000000000000E+00 
    7.4499999999975397E-01     4.1666666666576019E-01     0.0000000000000000E+00 
    9.1499999999980464E-01     1.3333333333306890E-01     0.0000000000000000E+00 
    9.1499999999980464E-01     2.6666666666600858E-01     0.0000000000000000E+00 
    9.1499999999980464E-01     3.9999999999894842E-01     0.0000000000000000E+00 
    9.1499999999980464E-01     5.3333333333261779E-01     0.0000000000000000E+00 
    9.1499999999980464E-01     6.6666666666631980E-01     0.0000000000000000E+00 
    8.4999999999853859E-02     3.3333333333337789E-01     0.0000000000000000E+00 
    8.4999999999925954E-02     4.6666666666669598E-01     0.0000000000000000E+00 
    8.4999999999998022E-02     6.0000000000001441E-01     0.0000000000000000E+00 
    8.5000000000070103E-02     7.3333333333334294E-01     0.0000000000000000E+00 
    8.5000000000142184E-02     8.6666666666667158E-01     0.0000000000000000E+00 
    2.5499999999984352E-01     5.8333333333247239E-01     0.0000000000000000E+00 
    2.5499999999991479E-01     6.6666666666566776E-01     0.0000000000000000E+00 
    2.5499999999998618E-01     7.4999999999898259E-01     0.0000000000000000E+00 
    2.5500000000005768E-01     8.3333333333265114E-01     0.0000000000000000E+00 
    2.5500000000012918E-01     9.1666666666632035E-01     0.0000000000000000E+00 
    4.1999999999993048E-01     7.0833333333347026E-01     0.0000000000000000E+00 
    4.1999999999998350E-01     7.6666666666670036E-01     0.0000000000000000E+00 
    4.2000000000003651E-01     8.2500000000002793E-01     0.0000000000000000E+00 
    4.2000000000008941E-01     8.8333333333335529E-01     0.0000000000000000E+00 
    4.2000000000014232E-01     9.4166666666667220E-01     0.0000000000000000E+00 
    5.7999999999989571E-01     4.5833333333345377E-01     0.0000000000000000E+00 
    5.7999999999995566E-01     5.6666666666652898E-01     0.0000000000000000E+00 
    5.8000000000001539E-01     6.7499999999962579E-01     0.0000000000000000E+00 
    5.8000000000007534E-01     7.8333333333307675E-01     0.0000000000000000E+00 
    5.8000000000013530E-01     8.9166666666653849E-01     0.0000000000000000E+00 
    7.4499999999985511E-01     5.8333333333245319E-01     0.0000000000000000E+00 
    7.4499999999994526E-01     6.6666666666565277E-01     0.0000000000000000E+00 
    7.4500000000003486E-01     7.4999999999897116E-01     0.0000000000000000E+00 
    7.4500000000012456E-01     8.3333333333264370E-01     0.0000000000000000E+00 
    7.4500000000021416E-01     9.1666666666631658E-01     0.0000000000000000E+00 
    9.1499999999988413E-01     8.3333333333322490E-01     0.0000000000000000E+00 
    9.1499999999996384E-01     8.6666666666642811E-01     0.0000000000000000E+00 
    9.1500000000004356E-01     8.9999999999982638E-01     0.0000000000000000E+00 
    9.1500000000012305E-01     9.3333333333322477E-01     0.0000000000000000E+00 
    9.1500000000020254E-01     9.6666666666660150E-01     0.0000000000000000E+00 

CELLS 288 1152 

3 0 21 109 
3 109 52 0 
3 52 109 110 
3 110 51 52 
3 51 110 111 
3 111 50 51 
3 50 111 112 
3 112 49 50 
3 49 112 113 
3 113 48 49 
3 48 113 103 
3 103 11 48 
3 21 12 53 
3 53 109 21 
3 109 53 54 
3 54 110 109 
3 110 54 55 
3 55 111 110 
3 111 55 56 
3 56 112 111 
3 112 56 57 
3 57 113 112 
3 113 57 10 
3 10 103 113 
3 12 22 114 
3 114 53 12 
3 53 114 115 
3 115 54 53 
3 54 115 116 
3 116 55 54 
3 55 116 117 
3 117 56 55 
3 56 117 118 
3 118 57 56 
3 57 118 104 
3 104 10 57 
3 22 15 63 
3 63 114 22 
3 114 63 64 
3 64 115 114 
3 115 64 65 
3 65 116 115 
3 116 65 66 
3 66 117 116 
3 117 66 67 
3 67 118 117 
3 118 67 9 
3 9 104 118 
3 15 23 119 
3 119 63 15 
3 63 119 120 
3 120 64 63 
3 64 120 121 
3 121 65 64 
3 65 121 122 
3 122 66 65 
3 66 122 123 
3 123 67 66 
3 67 123 105 
3 105 9 67 
3 23 4 73 
3 73 119 23 
3 119 73 74 
3 74 120 119 
3 120 74 75 
3 75 121 120 
3 121 75 76 
3 76 122 121 
3 122 76 77 
3 77 123 122 
3 123 77 20 
3 20 105 123 
3 4 24 124 
3 124 73 4 
3 73 124 125 
3 125 74 73 
3 74 125 126 
3 126 75 74 
3 75 126 127 
3 127 76 75 
3 76 127 128 
3 128 77 76 
3 77 128 106 
3 106 20 77 
3 24 16 83 
3 83 124 24 
3 124 83 84 
3 84 125 124 
3 125 84 85 
3 85 126 125 
3 126 85 86 
3 86 127 126 
3 127 86 87 
3 87 128 127 
3 128 87 8 
3 8 106 128 
3 16 25 129 
3 129 83 16 
3 83 129 130 
3 130 84 83 
3 84 130 131 
3 131 85 84 
3 85 131 132 
3 132 86 85 
3 86 132 133 
3 133 87 86 
3 87 133 107 
3 107 8 87 
3 25 19 93 
3 93 129 25 
3 129 93 94 
3 94 130 129 
3 130 94 95 
3 95 131 130 
3 131 95 96 
3 96 132 131 
3 132 96 97 
3 97 133 132 
3 133 97 7 
3 7 107 133 
3 19 26 134 
3 134 93 19 
3 93 134 135 
3 135 94 93 
3 94 135 136 
3 136 95 94 
3 95 136 137 
3 137 96 95 
3 96 137 138 
3 138 97 96 
3 97 138 108 
3 108 7 97 
3 26 1 27 
3 27 134 26 
3 134 27 28 
3 28 135 134 
3 135 28 29 
3 29 136 135 
3 136 29 30 
3 30 137 136 
3 137 30 31 
3 31 138 137 
3 138 31 6 
3 6 108 138 
3 11 103 139 
3 139 47 11 
3 47 139 140 
3 140 46 47 
3 46 140 141 
3 141 45 46 
3 45 141 142 
3 142 44 45 
3 44 142 143 
3 143 43 44 
3 43 143 42 
3 42 3 43 
3 103 10 58 
3 58 139 103 
3 139 58 59 
3 59 140 139 
3 140 59 60 
3 60 141 140 
3 141 60 61 
3 61 142 141 
3 142 61 62 
3 62 143 142 
3 143 62 13 
3 13 42 143 
3 10 104 144 
3 144 58 10 
3 58 144 145 
3 145 59 58 
3 59 145 146 
3 146 60 59 
3 60 146 147 
3 147 61 60 
3 61 147 148 
3 148 62 61 
3 62 148 41 
3 41 13 62 
3 104 9 68 
3 68 144 104 
3 144 68 69 
3 69 145 144 
3 145 69 70 
3 70 146 145 
3 146 70 71 
3 71 147 146 
3 147 71 72 
3 72 148 147 
3 148 72 14 
3 14 41 148 
3 9 105 149 
3 149 68 9 
3 68 149 150 
3 150 69 68 
3 69 150 151 
3 151 70 69 
3 70 151 152 
3 152 71 70 
3 71 152 153 
3 153 72 71 
3 72 153 40 
3 40 14 72 
3 105 20 78 
3 78 149 105 
3 149 78 79 
3 79 150 149 
3 150 79 80 
3 80 151 150 
3 151 80 81 
3 81 152 151 
3 152 81 82 
3 82 153 152 
3 153 82 5 
3 5 40 153 
3 20 106 154 
3 154 78 20 
3 78 154 155 
3 155 79 78 
3 79 155 156 
3 156 80 79 
3 80 156 157 
3 157 81 80 
3 81 157 158 
3 158 82 81 
3 82 158 39 
3 39 5 82 
3 106 8 88 
3 88 154 106 
3 154 88 89 
3 89 155 154 
3 155 89 90 
3 90 156 155 
3 156 90 91 
3 91 157 156 
3 157 91 92 
3 92 158 157 
3 158 92 17 
3 17 39 158 
3 8 107 159 
3 159 88 8 
3 88 159 160 
3 160 89 88 
3 89 160 161 
3 161 90 89 
3 90 161 162 
3 162 91 90 
3 91 162 163 
3 163 92 91 
3 92 163 38 
3 38 17 92 
3 107 7 98 
3 98 159 107 
3 159 98 99 
3 99 160 159 
3 160 99 100 
3 100 161 160 
3 161 100 101 
3 101 162 161 
3 162 101 102 
3 102 163 162 
3 163 102 18 
3 18 38 163 
3 7 108 164 
3 164 98 7 
3 98 164 165 
3 165 99 98 
3 99 165 166 
3 166 100 99 
3 100 166 167 
3 167 101 100 
3 101 167 168 
3 168 102 101 
3 102 168 37 
3 37 18 102 
3 108 6 32 
3 32 164 108 
3 164 32 33 
3 33 165 164 
3 165 33 34 
3 34 166 165 
3 166 34 35 
3 35 167 166 
3 167 35 36 
3 36 168 167 
3 168 36 2 
3 2 37 168 

CELL_TYPES 288 

5 
5 
5 
5 
5 
5 
5 
5 
5 
5 
5 
5 
5 
5 
5 
5 
5 
5 
5 
5 
5 
5 
5 
5 
5 
5 
5 
5 
5 
5 
5 
5 
5 
5 
5 
5 
5 
5 
5 
5 
5 
5 
5 
5 
5 
5 
5 
5 
5 
5 
5 
5 
5 
5 
5 
5 
5 
5 
5 
5 
5 
5 
5 
5 
5 
5 
5 
5 
5 
5 
5 
5 
5 
5 
5 
5 
5 
5 
5 
5 
5 
5 
5 
5 
5 
5 
5 
5 
5 
5 
5 
5 
5 
5 
5 
5 
5 
5 
5 
5 
5 
5 
5 
5 
5 
5 
5 
5 
5 
5 
5 
5 
5 
5 
5 
5 
5 
5 
5 
5 
5 
5 
5 
5 
5 
5 
5 
5 
5 
5 
5 
5 
5 
5 
5 
5 
5 
5 
5 
5 
5 
5 
5 
5 
5 
5 
5 
5 
5 
5 
5 
5 
5 
5 
5 
5 
5 
5 
5 
5 
5 
5 
5 
5 
5 
5 
5 
5 
5 
5 
5 
5 
5 
5 
5 
5 
5 
5 
5 
5 
5 
5 
5 
5 
5 
5 
5 
5 
5 
5 
5 
5 
5 
5 
5 
5 
5 
5 
5 
5 
5 
5 
5 
5 
5 
5 
5 
5 
5 
5 
5 
5 
5 
5 
5 
5 
5 
5 
5 
5 
5 
5 
5 
5 
5 
5 
5 
5 
5 
5 
5 
5 
5 
5 
5 
5 
5 
5 
5 
5 
5 
5 
5 
5 
5 
5 
5 
5 
5 
5 
5 
5 
5 
5 
5 
5 
5 
5 
5 
5 
5 
5 
5 
5 
5 
5 
5 
5 
5 
5 
5 
5 
5 
5 
5 
5 
5 
5 
5 
5 
5 
5 
5 
5 
5 
5 
5 
5 

CELL_DATA 288 
SCALARS Pressure float 1 
LOOKUP_TABLE default 

    4.3371655010184598E-03 
    7.1458227565574647E-03 
    2.7241218501081191E-02 
    1.8586234016344967E-02 
    5.0011808294682498E-02 
    2.9892932221987994E-02 
    7.2354336631131236E-02 
    4.0837149632200941E-02 
    9.3596396181115010E-02 
    5.1079988556282319E-02 
    1.1304822109954650E-01 
    6.0602505783030086E-02 
    1.5457718453841821E-02 
    2.9861331214571088E-02 
    7.1516652019727039E-02 
    7.4191542237376923E-02 
    1.2685868059598610E-01 
    1.1905150850669836E-01 
    1.8176613446559542E-01 
    1.6339047824752376E-01 
    2.3441912030449663E-01 
    2.0466035599598953E-01 
    2.8177485678372194E-01 
    2.3845309425363961E-01 
    6.0609573420467369E-02 
    8.1206954199555856E-02 
    2.0818488510747052E-01 
    1.8471551170483319E-01 
    3.4251865984832808E-01 
    2.8112179387684166E-01 
    4.5491278850633915E-01 
    3.6633035838355105E-01 
    5.4204964729822924E-01 
    4.3913165153059586E-01 
    6.0408341114662079E-01 
    4.9753087965654674E-01 
    1.1612418629884240E-01 
    1.7850762712404600E-01 
    4.0695772009707842E-01 
    4.0877825952944380E-01 
    6.2617062714298044E-01 
    5.8047095061474618E-01 
    7.4877200572741209E-01 
    6.8270648534970124E-01 
    7.7723071130455212E-01 
    7.2101014142330966E-01 
    7.2279427804676044E-01 
    7.1108141358647525E-01 
    1.0528455789396521E-01 
    2.2842766534465039E-01 
    4.3284337410706625E-01 
    5.4607407549581677E-01 
    6.9404430604496758E-01 
    7.6559394030179018E-01 
    8.5603752096220809E-01 
    8.6623838439602041E-01 
    9.0962259392668421E-01 
    8.5529243382758302E-01 
    8.6277764230153897E-01 
    7.4039459414947950E-01 
    8.4574313738148055E-02 
    1.9418647054001273E-01 
    3.6032859684364499E-01 
    4.8019449409687764E-01 
    6.0448437438400182E-01 
    7.1524536180434262E-01 
    7.9617093991573074E-01 
    8.7594149299309987E-01 
    9.1908803436430220E-01 
    9.5117086190265299E-01 
    9.6755250328861153E-01 
    9.4433191549631701E-01 
    5.8290379439727057E-02 
    1.4414860108498298E-01 
    2.5809306307211644E-01 
    3.6759997269408523E-01 
    4.4804425905174838E-01 
    5.7066559155280772E-01 
    6.1852335421178883E-01 
    7.4213001503569931E-01 
    7.6180039715724868E-01 
    8.6977846741759612E-01 
    8.7022786234509319E-01 
    9.4257553757078050E-01 
    3.0604390570699722E-02 
    8.6577095924303266E-02 
    1.4347491158356113E-01 
    2.2918838584753226E-01 
    2.5535335377579704E-01 
    3.6795226833033051E-01 
    3.6355553565350762E-01 
    5.0243499598218444E-01 
    4.6818918525424991E-01 
    6.1084712655495610E-01 
    5.5206147321128474E-01 
    7.3382160110782946E-01 
    6.3573018238172477E-02 
    9.2235374302908124E-02 
    2.0897112622495656E-01 
    2.0851655988653908E-01 
    3.4217873455113040E-01 
    3.1613576900519241E-01 
    4.5521122230223826E-01 
    4.1215028493541872E-01 
    5.5240856624817014E-01 
    5.0009025143670305E-01 
    6.2293973086243637E-01 
    5.7387264633447610E-01 
    7.8340662297246913E-02 
    1.3991654737599063E-01 
    2.6165737051020599E-01 
    3.0784791316759413E-01 
    4.0399280476575816E-01 
    4.4048791621495303E-01 
    4.9969457689080377E-01 
    5.3638768917644652E-01 
    5.4718282551386321E-01 
    5.9549345541655319E-01 
    5.4437654919828771E-01 
    6.2025097412708285E-01 
    4.9165454039000474E-02 
    1.1759444912141379E-01 
    1.7353996295340654E-01 
    2.5471490893025711E-01 
    2.6482602650345571E-01 
    3.5116648279420604E-01 
    3.1896572971247683E-01 
    4.0204312571804951E-01 
    3.3392585614822307E-01 
    4.0544545788873332E-01 
    3.0108312746214083E-01 
    3.4585802118801534E-01 
    1.6438697298434835E-02 
    5.5084188320751896E-02 
    5.1209657053786876E-02 
    1.0841115070341721E-01 
    7.3606121198844437E-02 
    1.4910270985562707E-01 
    8.6034006098262519E-02 
    1.6946876282097220E-01 
    8.7076900731282894E-02 
    1.6809089234051525E-01 
    7.5172606063278968E-02 
    1.4143230959920616E-01 
    1.4198418768568319E-01 
    7.3013713375471204E-02 
    1.7096710780448876E-01 
    8.5262637467071800E-02 
    1.7146202689611931E-01 
    8.3748481313432391E-02 
    1.4735368973811810E-01 
    7.0458173990535403E-02 
    1.0377725886924717E-01 
    4.7733233946139118E-02 
    4.2550748196008278E-02 
    1.7160914235199259E-02 
    3.4880333094645133E-01 
    3.0552216078605504E-01 
    4.1908244777198811E-01 
    3.4427474468663205E-01 
    4.1762352881085479E-01 
    3.2767434343999557E-01 
    3.5881429908952095E-01 
    2.6677618415618853E-01 
    2.5546216690678170E-01 
    1.7114972420074859E-01 
    1.1961611240784448E-01 
    4.6174174630828797E-02 
    6.3514289444206584E-01 
    5.5556190812015371E-01 
    6.1771028949806428E-01 
    5.6702985108674264E-01 
    5.5195826877127130E-01 
    5.1402857143744207E-01 
    4.4739212418533447E-01 
    4.0966701968219849E-01 
    3.1016403485082611E-01 
    2.6336499965134258E-01 
    1.4438738769143900E-01 
    8.0116851065008973E-02 
    6.1689218674446333E-01 
    6.6994804949123254E-01 
    5.2233421644913347E-01 
    5.7644259439922541E-01 
    4.2636092345778215E-01 
    4.6886053284564982E-01 
    3.2521945057425028E-01 
    3.5002388924516620E-01 
    2.1508060584555774E-01 
    2.1506951158387555E-01 
    9.6461140065249293E-02 
    6.6709676149502822E-02 
    7.5121015509151734E-01 
    6.1313878488360751E-01 
    6.7001086209506022E-01 
    4.9540130639142560E-01 
    5.2698868981716440E-01 
    3.7982683377721965E-01 
    3.8268952230671616E-01 
    2.6711781522434674E-01 
    2.3944536480420051E-01 
    1.5103404104662341E-01 
    9.2241537730871626E-02 
    3.3425598963314165E-02 
    9.4785674896023397E-01 
    8.7857347283168774E-01 
    8.7955506562561991E-01 
    7.8572650120986898E-01 
    7.6201459276945249E-01 
    6.4327191536299644E-01 
    5.9064735685791214E-01 
    4.6429029041286973E-01 
    3.8121444918532316E-01 
    2.6854713806013392E-01 
    1.5263698448248800E-01 
    6.3004842226522403E-02 
    9.3735648359066759E-01 
    9.6650793164369764E-01 
    9.5019953339369290E-01 
    9.2344039301726510E-01 
    8.8208954094704128E-01 
    8.0875542386000954E-01 
    7.2840235682232812E-01 
    6.1986387168720458E-01 
    4.9418735103847222E-01 
    3.7226131908817361E-01 
    2.0492073761073823E-01 
    9.0865642835485733E-02 
    7.0895289622815150E-01 
    8.4720288812952860E-01 
    8.4155194757938800E-01 
    9.0321304622038190E-01 
    8.6181928114268080E-01 
    8.5834507412647076E-01 
    7.7020488654353303E-01 
    7.0389861504704987E-01 
    5.5746905388843648E-01 
    4.4423609608111153E-01 
    2.3968334910461256E-01 
    1.1231656401591737E-01 
    7.1388144903595740E-01 
    7.0628173429209851E-01 
    7.2152109238864059E-01 
    7.7579228480035289E-01 
    6.8715391046476193E-01 
    7.5280859302276226E-01 
    5.8751744856019195E-01 
    6.3376464335893201E-01 
    4.1704975080141793E-01 
    4.1608332141460191E-01 
    1.8488503890575383E-01 
    1.2262906264577268E-01 
    4.9756407083247006E-01 
    6.0463441411736707E-01 
    4.4144584798160619E-01 
    5.4443535336135218E-01 
    3.6954484546979360E-01 
    4.5881515929937394E-01 
    2.8427534986976466E-01 
    3.4688451108600366E-01 
    1.8713650023571624E-01 
    2.1175430950355492E-01 
    8.2602389728011108E-02 
    6.3057266567131579E-02 
    2.3831843395252314E-01 
    2.8279076628318339E-01 
    2.0556319744361595E-01 
    2.3599128350595663E-01 
    1.6432593897931413E-01 
    1.8335548784493816E-01 
    1.1975817325508982E-01 
    1.2801506547509750E-01 
    7.4549106522457775E-02 
    7.2143133906949430E-02 
    3.0032970692697520E-02 
    1.5913240461518600E-02 
    6.1050827968032302E-02 
    1.1377565624158432E-01 
    5.1650287563769375E-02 
    9.4452010379632120E-02 
    4.1363355649830243E-02 
    7.3090191267153451E-02 
    3.0285086081135788E-02 
    5.0514755811523530E-02 
    1.8818366458178037E-02 
    2.7506501567227625E-02 
    7.2511241824234499E-03 
    4.4762241506053424E-03 

