# vtk DataFile Version 2.0
Pressure Field Data 
ASCII 
DATASET UNSTRUCTURED_GRID 

POINTS 1089 float 

    0.0000000000000000E+00     0.0000000000000000E+00     0.0000000000000000E+00 
    1.0000000000000000E+00     0.0000000000000000E+00     0.0000000000000000E+00 
    1.0000000000000000E+00     1.0000000000000000E+00     0.0000000000000000E+00 
    0.0000000000000000E+00     1.0000000000000000E+00     0.0000000000000000E+00 
    3.1249999999941821E-02     0.0000000000000000E+00     0.0000000000000000E+00 
    6.2499999999872928E-02     0.0000000000000000E+00     0.0000000000000000E+00 
    9.3749999999823030E-02     0.0000000000000000E+00     0.0000000000000000E+00 
    1.2499999999977310E-01     0.0000000000000000E+00     0.0000000000000000E+00 
    1.5624999999968331E-01     0.0000000000000000E+00     0.0000000000000000E+00 
    1.8749999999959341E-01     0.0000000000000000E+00     0.0000000000000000E+00 
    2.1874999999950220E-01     0.0000000000000000E+00     0.0000000000000000E+00 
    2.4999999999941089E-01     0.0000000000000000E+00     0.0000000000000000E+00 
    2.8124999999931971E-01     0.0000000000000000E+00     0.0000000000000000E+00 
    3.1249999999922851E-01     0.0000000000000000E+00     0.0000000000000000E+00 
    3.4374999999913730E-01     0.0000000000000000E+00     0.0000000000000000E+00 
    3.7499999999904610E-01     0.0000000000000000E+00     0.0000000000000000E+00 
    4.0624999999895478E-01     0.0000000000000000E+00     0.0000000000000000E+00 
    4.3749999999886358E-01     0.0000000000000000E+00     0.0000000000000000E+00 
    4.6874999999877792E-01     0.0000000000000000E+00     0.0000000000000000E+00 
    4.9999999999869210E-01     0.0000000000000000E+00     0.0000000000000000E+00 
    5.3124999999876910E-01     0.0000000000000000E+00     0.0000000000000000E+00 
    5.6249999999884603E-01     0.0000000000000000E+00     0.0000000000000000E+00 
    5.9374999999892841E-01     0.0000000000000000E+00     0.0000000000000000E+00 
    6.2499999999901090E-01     0.0000000000000000E+00     0.0000000000000000E+00 
    6.5624999999909328E-01     0.0000000000000000E+00     0.0000000000000000E+00 
    6.8749999999917577E-01     0.0000000000000000E+00     0.0000000000000000E+00 
    7.1874999999925815E-01     0.0000000000000000E+00     0.0000000000000000E+00 
    7.4999999999934064E-01     0.0000000000000000E+00     0.0000000000000000E+00 
    7.8124999999942302E-01     0.0000000000000000E+00     0.0000000000000000E+00 
    8.1249999999950551E-01     0.0000000000000000E+00     0.0000000000000000E+00 
    8.4374999999958789E-01     0.0000000000000000E+00     0.0000000000000000E+00 
    8.7499999999967026E-01     0.0000000000000000E+00     0.0000000000000000E+00 
    9.0624999999975264E-01     0.0000000000000000E+00     0.0000000000000000E+00 
    9.3749999999983513E-01     0.0000000000000000E+00     0.0000000000000000E+00 
    9.6874999999991751E-01     0.0000000000000000E+00     0.0000000000000000E+00 
    1.0000000000000000E+00     3.1249999999941821E-02     0.0000000000000000E+00 
    1.0000000000000000E+00     6.2499999999872928E-02     0.0000000000000000E+00 
    1.0000000000000000E+00     9.3749999999823030E-02     0.0000000000000000E+00 
    1.0000000000000000E+00     1.2499999999977310E-01     0.0000000000000000E+00 
    1.0000000000000000E+00     1.5624999999968331E-01     0.0000000000000000E+00 
    1.0000000000000000E+00     1.8749999999959341E-01     0.0000000000000000E+00 
    1.0000000000000000E+00     2.1874999999950220E-01     0.0000000000000000E+00 
    1.0000000000000000E+00     2.4999999999941089E-01     0.0000000000000000E+00 
    1.0000000000000000E+00     2.8124999999931971E-01     0.0000000000000000E+00 
    1.0000000000000000E+00     3.1249999999922851E-01     0.0000000000000000E+00 
    1.0000000000000000E+00     3.4374999999913730E-01     0.0000000000000000E+00 
    1.0000000000000000E+00     3.7499999999904610E-01     0.0000000000000000E+00 
    1.0000000000000000E+00     4.0624999999895478E-01     0.0000000000000000E+00 
    1.0000000000000000E+00     4.3749999999886358E-01     0.0000000000000000E+00 
    1.0000000000000000E+00     4.6874999999877792E-01     0.0000000000000000E+00 
    1.0000000000000000E+00     4.9999999999869210E-01     0.0000000000000000E+00 
    1.0000000000000000E+00     5.3124999999876910E-01     0.0000000000000000E+00 
    1.0000000000000000E+00     5.6249999999884603E-01     0.0000000000000000E+00 
    1.0000000000000000E+00     5.9374999999892841E-01     0.0000000000000000E+00 
    1.0000000000000000E+00     6.2499999999901090E-01     0.0000000000000000E+00 
    1.0000000000000000E+00     6.5624999999909328E-01     0.0000000000000000E+00 
    1.0000000000000000E+00     6.8749999999917577E-01     0.0000000000000000E+00 
    1.0000000000000000E+00     7.1874999999925815E-01     0.0000000000000000E+00 
    1.0000000000000000E+00     7.4999999999934064E-01     0.0000000000000000E+00 
    1.0000000000000000E+00     7.8124999999942302E-01     0.0000000000000000E+00 
    1.0000000000000000E+00     8.1249999999950551E-01     0.0000000000000000E+00 
    1.0000000000000000E+00     8.4374999999958789E-01     0.0000000000000000E+00 
    1.0000000000000000E+00     8.7499999999967026E-01     0.0000000000000000E+00 
    1.0000000000000000E+00     9.0624999999975264E-01     0.0000000000000000E+00 
    1.0000000000000000E+00     9.3749999999983513E-01     0.0000000000000000E+00 
    1.0000000000000000E+00     9.6874999999991751E-01     0.0000000000000000E+00 
    9.6874999999986700E-01     1.0000000000000000E+00     0.0000000000000000E+00 
    9.3749999999973976E-01     1.0000000000000000E+00     0.0000000000000000E+00 
    9.0624999999967670E-01     1.0000000000000000E+00     0.0000000000000000E+00 
    8.7499999999950118E-01     1.0000000000000000E+00     0.0000000000000000E+00 
    8.4374999999971556E-01     1.0000000000000000E+00     0.0000000000000000E+00 
    8.1249999999991318E-01     1.0000000000000000E+00     0.0000000000000000E+00 
    7.8125000000010270E-01     1.0000000000000000E+00     0.0000000000000000E+00 
    7.5000000000034706E-01     1.0000000000000000E+00     0.0000000000000000E+00 
    7.1875000000056688E-01     1.0000000000000000E+00     0.0000000000000000E+00 
    6.8750000000078049E-01     1.0000000000000000E+00     0.0000000000000000E+00 
    6.5625000000097422E-01     1.0000000000000000E+00     0.0000000000000000E+00 
    6.2500000000121403E-01     1.0000000000000000E+00     0.0000000000000000E+00 
    5.9375000000151579E-01     1.0000000000000000E+00     0.0000000000000000E+00 
    5.6250000000164757E-01     1.0000000000000000E+00     0.0000000000000000E+00 
    5.3125000000182365E-01     1.0000000000000000E+00     0.0000000000000000E+00 
    5.0000000000205946E-01     1.0000000000000000E+00     0.0000000000000000E+00 
    4.6875000000194023E-01     1.0000000000000000E+00     0.0000000000000000E+00 
    4.3750000000182099E-01     1.0000000000000000E+00     0.0000000000000000E+00 
    4.0625000000169093E-01     1.0000000000000000E+00     0.0000000000000000E+00 
    3.7500000000156092E-01     1.0000000000000000E+00     0.0000000000000000E+00 
    3.4375000000143069E-01     1.0000000000000000E+00     0.0000000000000000E+00 
    3.1250000000130068E-01     1.0000000000000000E+00     0.0000000000000000E+00 
    2.8125000000117062E-01     1.0000000000000000E+00     0.0000000000000000E+00 
    2.5000000000104050E-01     1.0000000000000000E+00     0.0000000000000000E+00 
    2.1875000000091041E-01     1.0000000000000000E+00     0.0000000000000000E+00 
    1.8750000000078040E-01     1.0000000000000000E+00     0.0000000000000000E+00 
    1.5625000000065031E-01     1.0000000000000000E+00     0.0000000000000000E+00 
    1.2500000000052031E-01     1.0000000000000000E+00     0.0000000000000000E+00 
    9.3750000000390132E-02     1.0000000000000000E+00     0.0000000000000000E+00 
    6.2500000000260125E-02     1.0000000000000000E+00     0.0000000000000000E+00 
    3.1250000000130007E-02     1.0000000000000000E+00     0.0000000000000000E+00 
    0.0000000000000000E+00     9.6874999999986700E-01     0.0000000000000000E+00 
    0.0000000000000000E+00     9.3749999999973976E-01     0.0000000000000000E+00 
    0.0000000000000000E+00     9.0624999999967670E-01     0.0000000000000000E+00 
    0.0000000000000000E+00     8.7499999999950118E-01     0.0000000000000000E+00 
    0.0000000000000000E+00     8.4374999999971556E-01     0.0000000000000000E+00 
    0.0000000000000000E+00     8.1249999999991318E-01     0.0000000000000000E+00 
    0.0000000000000000E+00     7.8125000000010270E-01     0.0000000000000000E+00 
    0.0000000000000000E+00     7.5000000000034706E-01     0.0000000000000000E+00 
    0.0000000000000000E+00     7.1875000000056688E-01     0.0000000000000000E+00 
    0.0000000000000000E+00     6.8750000000078049E-01     0.0000000000000000E+00 
    0.0000000000000000E+00     6.5625000000097422E-01     0.0000000000000000E+00 
    0.0000000000000000E+00     6.2500000000121403E-01     0.0000000000000000E+00 
    0.0000000000000000E+00     5.9375000000151579E-01     0.0000000000000000E+00 
    0.0000000000000000E+00     5.6250000000164757E-01     0.0000000000000000E+00 
    0.0000000000000000E+00     5.3125000000182365E-01     0.0000000000000000E+00 
    0.0000000000000000E+00     5.0000000000205946E-01     0.0000000000000000E+00 
    0.0000000000000000E+00     4.6875000000194023E-01     0.0000000000000000E+00 
    0.0000000000000000E+00     4.3750000000182099E-01     0.0000000000000000E+00 
    0.0000000000000000E+00     4.0625000000169093E-01     0.0000000000000000E+00 
    0.0000000000000000E+00     3.7500000000156092E-01     0.0000000000000000E+00 
    0.0000000000000000E+00     3.4375000000143069E-01     0.0000000000000000E+00 
    0.0000000000000000E+00     3.1250000000130068E-01     0.0000000000000000E+00 
    0.0000000000000000E+00     2.8125000000117062E-01     0.0000000000000000E+00 
[...]
CELL_DATA 1024 
SCALARS Pressure float 1 
LOOKUP_TABLE default 

   -3.3749827911418784E-01 
   -3.3434376829388401E-01 
   -3.2832045641853719E-01 
   -3.2676664815758516E-01 
   -3.1909480403315876E-01 
   -3.2241887462633961E-01 
   -3.1730609892062461E-01 
   -3.1326146341072081E-01 
   -3.0868572301257607E-01 
   -3.1303781052074059E-01 
   -3.0953993583011563E-01 
   -3.0505852002105549E-01 
   -3.0219838860602782E-01 
   -3.0672626916042983E-01 
   -3.0452301581555125E-01 
   -2.9998923538185329E-01 
   -2.9835092381761141E-01 
   -3.0287049421078732E-01 
   -3.0172014975035516E-01 
   -2.9722419001445399E-01 
   -2.9656235053223406E-01 
   -3.0103134291005995E-01 
   -3.0076880049499122E-01 
   -2.9632646878812763E-01 
   -2.9648239063031023E-01 
   -3.0090073962081948E-01 
   -3.0139750337134447E-01 
   -2.9699883590286019E-01 
   -2.9784610210666151E-01 
   -3.0223055060502463E-01 
   -3.0337167849294300E-01 
   -2.9899512415129753E-01 
   -3.0041673924747558E-01 
   -3.0479239297262389E-01 
   -3.0646337133075613E-01 
   -3.0208107002534779E-01 
   -3.0395698135828503E-01 
   -3.0835398386918256E-01 
   -3.1043185729435768E-01 
   -3.0601159320746907E-01 
   -3.0820984547602759E-01 
   -3.1266247121640578E-01 
   -3.1500878158338969E-01 
   -3.1051411427671566E-01 
   -3.1288387823471026E-01 
   -3.1743086319492569E-01 
   -3.1988556027488857E-01 
   -3.1527543782791251E-01 
   -3.1764171270256863E-01 
   -3.2232613144251032E-01 
   -3.2470186809776719E-01 
   -3.1993219954222019E-01 
   -3.2209330473991343E-01 
   -3.2695763258359684E-01 
   -3.2903312653702815E-01 
   -3.2406957225138944E-01 
   -3.2580709426145404E-01 
   -3.3086118828346867E-01 
   -3.3236253922077835E-01 
   -3.2726248390062562E-01 
   -3.2842742663206120E-01 
   -3.3342748560967522E-01 
   -3.3385139692396432E-01 
   -3.2942920460267572E-01 
   -3.3387614930795900E-01 
   -3.3462717970186251E-01 
   -3.3090105122162378E-01 
   -3.2949726684667041E-01 
   -3.2485409569346890E-01 
   -3.2700377482714199E-01 
   -3.2325269052534633E-01 
   -3.2050645974318903E-01 
   -3.1667798747134757E-01 
   -3.1984635927242600E-01 
   -3.1688333753186704E-01 
   -3.1342984362364806E-01 
   -3.1075758564449157E-01 
   -3.1440130737582811E-01 
   -3.1240562295134516E-01 
   -3.0863394202812577E-01 
   -3.0702575891244543E-01 
   -3.1088579985378390E-01 
   -3.0982407068471246E-01 
   -3.0590002514393350E-01 
   -3.0522556883913399E-01 
   -3.0919951528704298E-01 
   -3.0898990330629389E-01 
   -3.0497314508504819E-01 
   -3.0511499160038186E-01 
   -3.0917240348844360E-01 
   -3.0972374872827124E-01 
   -3.0562425943028620E-01 
   -3.0647445754605940E-01 
   -3.1062014641915570E-01 
   -3.1183707300757385E-01 
   -3.0763894741418613E-01 
   -3.0909048643425913E-01 
   -3.1334901673370852E-01 
   -3.1512919753265939E-01 
   -3.1080080922346265E-01 
   -3.1274023597626599E-01 
   -3.1714927603453169E-01 
   -3.1937905636163116E-01 
   -3.1487729987198454E-01 
   -3.1717838721465180E-01 
   -3.2178618230314454E-01 
   -3.2433582197576183E-01 
   -3.1960738260779215E-01 
   -3.2212530685317592E-01 
   -3.2699032885393481E-01 
   -3.2970885611065703E-01 
   -3.2468992507072841E-01 
   -3.2725528603161419E-01 
   -3.3244688178679949E-01 
   -3.3515556727300067E-01 
   -3.2977111469098019E-01 
   -3.3218189277584714E-01 
   -3.3778080404710714E-01 
   -3.4026167836070337E-01 
   -3.3442524741487106E-01 
   -3.3642874634051001E-01 
   -3.4252786653912837E-01 
   -3.4449518580323818E-01 
   -3.3810296053564032E-01 
   -3.3932595089773915E-01 
   -3.4605850095250573E-01 
   -3.4708310123771596E-01 
   -3.3990991810883636E-01 
   -3.3601843213961174E-01 
   -3.3780737174228992E-01 
   -3.3453461524946143E-01 
   -3.3259006453067752E-01 
   -3.2912815430287312E-01 
   -3.3133639033400658E-01 
   -3.2830186357807933E-01 
   -3.2579993759903342E-01 
   -3.2274422327496199E-01 
   -3.2552112967419566E-01 
   -3.2306511025458673E-01 
   -3.2005188950560476E-01 
   -3.1777306448912690E-01 
   -3.2098141947862607E-01 
   -3.1929759295693261E-01 
   -3.1592981150587840E-01 
   -3.1452669249065318E-01 
   -3.1802617042294989E-01 
   -3.1716925051539047E-01 
   -3.1355788638339410E-01 
   -3.1301151512983683E-01 
   -3.1672187272171792E-01 
   -3.1667429374753214E-01 
   -3.1287210419204980E-01 
   -3.1312190090351183E-01 
   -3.1701342239504005E-01 
   -3.1772367251052597E-01 
   -3.1374152453094523E-01 
   -3.1471023394086445E-01 
   -3.1878743297218304E-01 
   -3.2018529161401976E-01 
   -3.1600597840428890E-01 
   -3.1760532430990907E-01 
   -3.2189610260984264E-01 
   -3.2389695364236648E-01 
   -3.1948331008547404E-01 
   -3.2161325724286260E-01 
   -3.2616306844696547E-01 
   -3.2866766552644749E-01 
   -3.2396655306602828E-01 
   -3.2651241147894466E-01 
   -3.3138178600960122E-01 
   -3.3427409535034847E-01 
   -3.2921761211562284E-01 
   -3.3204621040766413E-01 
   -3.3731065859034942E-01 
   -3.4045468243473487E-01 
   -3.3495920225592041E-01 
   -3.3791411339149136E-01 
   -3.4366621114046053E-01 
   -3.4690175727850386E-01 
   -3.4086446363247719E-01 
   -3.4375902716939832E-01 
   -3.5011384726331435E-01 
   -3.5325047675381488E-01 
   -3.4654077643879305E-01 
   -3.4914538659565680E-01 
   -3.5625453502735344E-01 
   -3.5906344320183103E-01 
   -3.5149929829937848E-01 
   -3.5351791217136497E-01 
   -3.6160969945221877E-01 
   -3.6382392501106270E-01 
   -3.5510633684047377E-01 
   -3.3989273229903255E-01 
   -3.4223909427530663E-01 
   -3.3911740080326624E-01 
   -3.3671163816987632E-01 
   -3.3368217560449859E-01 
   -3.3620234325272791E-01 
   -3.3352394513646988E-01 
   -3.3085429387360210E-01 
   -3.2828577289627925E-01 
   -3.3112001161490695E-01 
   -3.2902784223948561E-01 
   -3.2602851077618189E-01 
   -3.2412236596976063E-01 
   -3.2727903957998533E-01 
   -3.2589735901284816E-01 
   -3.2259425014418652E-01 
   -3.2145974141018724E-01 
   -3.2489857295769398E-01 
   -3.2429133453627873E-01 
   -3.2072542226500234E-01 
   -3.2039106520129279E-01 
   -3.2407835606616270E-01 
   -3.2425753825286280E-01 
   -3.2045136177087669E-01 
   -3.2089716792546985E-01 
   -3.2482290073098252E-01 
   -3.2576528166464308E-01 
   -3.2171634257618165E-01 
   -3.2289427772695095E-01 
   -3.2707282881192051E-01 
   -3.2873131919688309E-01 
   -3.2441420697737500E-01 
   -3.2625735917564874E-01 
   -3.3072434921806126E-01 
   -3.3303342745961145E-01 
   -3.2840300561137697E-01 
   -3.3082843442958620E-01 
   -3.3563799840198166E-01 
   -3.3851541747660352E-01 
   -3.3350887518149586E-01 
   -3.3641738867211118E-01 
   -3.4164089322752528E-01 
   -3.4498740858268540E-01 
   -3.3952473180200049E-01 
   -3.4279920259417473E-01 
   -3.4852563077577825E-01 
   -3.5222381874495096E-01 
   -3.4620646796188775E-01 
   -3.4970937529043356E-01 
   -3.5604773843402987E-01 
   -3.5996060243832512E-01 
   -3.5326775182286457E-01 
   -3.5683820688213419E-01 
   -3.6392306398761687E-01 
   -3.6789332214804815E-01 
   -3.6037398179897318E-01 
   -3.6382495978261242E-01 
   -3.7182744299527959E-01 
   -3.7568007628864958E-01 
   -3.6713808356496913E-01 
   -3.7025866343665409E-01 
   -3.7940584242146635E-01 
   -3.8296172080951196E-01 
   -3.7313336865536373E-01 
   -3.4484462883768680E-01 
   -3.4772597774134328E-01 
   -3.4467538909804141E-01 
   -3.4176416943608429E-01 
   -3.3893075145897600E-01 
   -3.4190263634115564E-01 
   -3.3942171144677347E-01 
   -3.3636398277956225E-01 
   -3.3408959596821547E-01 
   -3.3725107228134221E-01 
   -3.3541085457994141E-01 
   -3.3213463371935464E-01 
   -3.3052371785914963E-01 
   -3.3392035284443355E-01 
   -3.3279624415394632E-01 
   -3.2927688970628727E-01 
   -3.2840878378577421E-01 
   -3.3205161075625450E-01 
   -3.3169559257618031E-01 
   -3.2792866778206908E-01 
   -3.2784092316870844E-01 
   -3.3173344703007096E-01 
   -3.3216681794006497E-01 
   -3.2814567398674921E-01 
   -3.2883939718848965E-01 
   -3.3299407952221610E-01 
   -3.3421067122480719E-01 
   -3.2991543789605493E-01 
   -3.3136440661472882E-01 
   -3.3580938375108282E-01 
   -3.3778058116158427E-01 
   -3.3317446298354381E-01 
   -3.3533150250219979E-01 
   -3.4011235949259833E-01 
   -3.4279064984093000E-01 
   -3.3781926580818650E-01 
   -3.4061938938237168E-01 
   -3.4579927709907254E-01 
   -3.4911998648561976E-01 
   -3.4371141438991437E-01 
   -3.4707276807013254E-01 
   -3.5273245002950715E-01 
   -3.5661426504138860E-01 
   -3.5067873031319607E-01 
   -3.5450239718549675E-01 
   -3.6074095688228336E-01 
   -3.6508599951058412E-01 
   -3.5851465371641472E-01 
   -3.6268417086496824E-01 
   -3.6962086987964526E-01 
   -3.7431515699799739E-01 
   -3.6697744774413399E-01 
   -3.7135893128234743E-01 
   -3.7913675397342084E-01 
   -3.8405217208349518E-01 
   -3.7579126421620263E-01 
   -3.8023573975243347E-01 
   -3.8902702870029532E-01 
   -3.9402677117583601E-01 
   -3.8465307445743008E-01 
   -3.8900463581927591E-01 
   -3.9901769527197062E-01 
   -4.0396827780169947E-01 
   -3.9325423669176351E-01 
   -3.5091057528527592E-01 
   -3.5443248712951403E-01 
   -3.5141995701037143E-01 
   -3.4788199954040594E-01 
   -3.4515556804143777E-01 
   -3.4872932349428903E-01 
   -3.4636975845470092E-01 
   -3.4274217301193738E-01 
   -3.4065587948538012E-01 
   -3.4435268356264309E-01 
   -3.4269077498169093E-01 
   -3.3891228425955244E-01 
   -3.3752685007642541E-01 
   -3.4139686070931341E-01 
   -3.4048293194067453E-01 
   -3.3651355840283032E-01 
   -3.3588400841606586E-01 
   -3.3995939058787622E-01 
   -3.3983455824729702E-01 
   -3.3564693474931162E-01 
   -3.3580804309488160E-01 
   -3.4011441309342588E-01 
   -3.4080249510614757E-01 
   -3.3637004919569324E-01 
   -3.3733282474545578E-01 
   -3.4189991850202300E-01 
   -3.4340544067921425E-01 
   -3.3869358139528427E-01 
   -3.4044705028189776E-01 
   -3.4531555128062524E-01 
   -3.4762455846261026E-01 
   -3.4258563468607861E-01 
   -3.4509952728486515E-01 
   -3.5032466029458981E-01 
   -3.5340599714746607E-01 
   -3.4797679215459087E-01 
   -3.5120341677866340E-01 
   -3.5685668641707258E-01 
   -3.6066284463113785E-01 
   -3.5476334216092603E-01 
   -3.5863848075320565E-01 
   -3.6480860451662228E-01 
   -3.6927613644070839E-01 
   -3.6280873297937966E-01 
   -3.6725201417446418E-01 
   -3.7404568513216463E-01 
   -3.7909563398233276E-01 
   -3.7194430514429133E-01 
   -3.7685974162285080E-01 
   -3.8440261066895870E-01 
   -3.8994164938984011E-01 
   -3.8197076095586174E-01 
   -3.8724832845307433E-01 
   -3.9568642648356617E-01 
   -4.0160958712586492E-01 
   -3.9266227068808390E-01 
   -3.9818174690433894E-01 
   -4.0768317985807012E-01 
   -4.1387921067310723E-01 
   -4.0377588909854079E-01 
   -4.0941462933457023E-01 
   -4.2017031578860436E-01 
   -4.2653052838279265E-01 
   -4.1506969969607604E-01 
   -3.5833003654225420E-01 
   -3.6264439851919283E-01 
   -3.5964975153940265E-01 
   -3.5532862688693773E-01 
   -3.5266549827995364E-01 
   -3.5700712840266263E-01 
   -3.5472433211648630E-01 
   -3.5034889698479571E-01 
   -3.4838868667528239E-01 
   -3.5281036298075813E-01 
   -3.5127500359762470E-01 
   -3.4679572131300762E-01 
   -3.4558110279785820E-01 
   -3.5012830589949284E-01 
   -3.4938006518524789E-01 
   -3.4475546234531990E-01 
   -3.4432835870286915E-01 
   -3.4903934715856011E-01 
   -3.4911410513603852E-01 
   -3.4430783287853756E-01 
   -3.4470011721046778E-01 
   -3.4961089771844028E-01 
   -3.5053469823055711E-01 
   -3.4550947229436402E-01 
   -3.4673811634913887E-01 
   -3.5188877716116590E-01 
   -3.5367463594655280E-01 
   -3.4838621280216842E-01 
   -3.5045188822883855E-01 
   -3.5589197219465518E-01 
   -3.5853866057559036E-01 
   -3.5293126075284692E-01 
   -3.5581846662453331E-01 
   -3.6161073852990211E-01 
   -3.6510239076612855E-01 
   -3.5910567910684160E-01 
   -3.6278311885767911E-01 
   -3.6900593083053013E-01 
   -3.7331178172670459E-01 
   -3.6683905887192536E-01 
   -3.7125983000171764E-01 
   -3.7800846066593730E-01 
   -3.8308257558479281E-01 
   -3.7602983535260764E-01 
   -3.8113158362460681E-01 
   -3.8851884307247003E-01 
   -3.9430013872616887E-01 
   -3.8654575281174380E-01 
   -3.9225129658352170E-01 
   -4.0040759153445510E-01 
   -4.0682073344423375E-01 
   -3.9822560604332080E-01 
   -4.0444473916063717E-01 
   -4.1351771352364847E-01 
   -4.2047558281201725E-01 
   -4.1088372858049443E-01 
   -4.1751697499402041E-01 
   -4.2767065079682409E-01 
   -4.3507890730645343E-01 
   -4.2431872672756049E-01 
   -4.3126363535957563E-01 
   -4.4267649448196061E-01 
   -4.5044020290396719E-01 
   -4.3832736112072240E-01 
   -3.6741875074958147E-01 
   -3.7269775669582172E-01 
   -3.6970452788649677E-01 
   -3.6442679439173992E-01 
   -3.6179839637280886E-01 
   -3.6708442720278306E-01 
   -3.6484520554566219E-01 
   -3.5954122696671553E-01 
   -3.5766388379788694E-01 
   -3.6299537698935636E-01 
   -3.6154400090513572E-01 
   -3.5617560100905804E-01 
   -3.5508588208806235E-01 
   -3.6050040766084407E-01 
   -3.5987390004737974E-01 
   -3.5440410834877234E-01 
   -3.5413916791254257E-01 
   -3.5967346020170171E-01 
   -3.5990748386301702E-01 
   -3.5429913491433473E-01 
   -3.5489101215057561E-01 
   -3.6058355384246160E-01 
   -3.6170825544183610E-01 
   -3.5592053687659975E-01 
   -3.5739204072003761E-01 
   -3.6328702979595529E-01 
   -3.6532405716215527E-01 
   -3.5930835056984717E-01 
   -3.6167071675976575E-01 
   -3.6782216073612717E-01 
   -3.7078272202355533E-01 
   -3.6447875662102136E-01 
   -3.6773040446553512E-01 
   -3.7420560051421858E-01 
   -3.7808905289130129E-01 
   -3.7142186254377274E-01 
   -3.7554755107354448E-01 
   -3.8242964992952772E-01 
   -3.8722219238801198E-01 
   -3.8010005884373393E-01 
   -3.8507009905429135E-01 
   -3.9245963044828280E-01 
   -3.9813299443338257E-01 
   -3.9044647787110875E-01 
   -3.9621608550931986E-01 
   -4.0423134743361355E-01 
   -4.1074177268002865E-01 
   -4.0236392127518061E-01 
   -4.0887316455949618E-01 
   -4.1764940950958407E-01 
   -4.2493755090255969E-01 
   -4.1572530288600018E-01 
   -4.2290032540138822E-01 
   -4.3258781221528636E-01 
   -4.4058037452539450E-01 
   -4.3037698543272523E-01 
   -4.3813312902998086E-01 
   -4.4889429719877599E-01 
   -4.5750788401478876E-01 
   -4.4614607830133191E-01 
   -4.5439304987642692E-01 
   -4.6639907753926263E-01 
   -4.7554585007007194E-01 
   -4.6285158145575089E-01 
   -3.7852725823227684E-01 
   -3.8495410485115167E-01 
   -3.8194632154618968E-01 
   -3.7552878495781183E-01 
   -3.7291116206192987E-01 
   -3.7932529374463475E-01 
   -3.7709937867184595E-01 
   -3.7068237934986942E-01 
   -3.6885110014051997E-01 
   -3.7527756993555839E-01 
   -3.7386934292061025E-01 
   -3.6742648525713839E-01 
   -3.6641797765021705E-01 
   -3.7288447587190598E-01 
   -3.7233286002602806E-01 
   -3.6583506800603505E-01 
   -3.6568706070245249E-01 
   -3.7222431086167029E-01 
   -3.7256838956201582E-01 
   -3.6598285504010680E-01 
   -3.6673075061622507E-01 
   -3.7337423995067187E-01 
   -3.7465044228235711E-01 
   -3.6793827968110548E-01 
   -3.6961206442954109E-01 
   -3.7640488194620425E-01 
   -3.7864462871576848E-01 
   -3.7175769392184127E-01 
   -3.7437961372612311E-01 
   -3.8137582076705323E-01 
   -3.8460354724780932E-01 
   -3.7748102119373850E-01 
   -3.8106376021520305E-01 
   -3.8833172362506296E-01 
   -3.9256295528340013E-01 
   -3.8512821108319267E-01 
   -3.8967317352177078E-01 
   -3.9729838686457974E-01 
   -4.0253753765191336E-01 
   -3.9469574391055628E-01 
   -4.0019119115033686E-01 
   -4.0827812694908000E-01 
   -4.1451589786307191E-01 
   -4.0615283934973362E-01 
   -4.1257196929563505E-01 
   -4.2124445298262436E-01 
   -4.2845512063399727E-01 
   -4.1943775401595723E-01 
   -4.2673724588225981E-01 
   -4.3613687471087237E-01 
   -4.4427633297547514E-01 
   -4.3445543259825431E-01 
   -4.4257537594781687E-01 
   -4.5285785623461122E-01 
   -4.6186376196799128E-01 
   -4.5107843948516763E-01 
   -4.5994459946906319E-01 
   -4.7127464990409140E-01 
   -4.8106981516690767E-01 
   -4.6915281883013737E-01 
   -4.7868145023482456E-01 
   -4.9122770199656590E-01 
   -5.0172633609546757E-01 
   -4.8850862610438550E-01 
   -3.9202607672376344E-01 
   -3.9979187664651622E-01 
   -3.9675257629092509E-01 
   -3.8900475760813508E-01 
   -3.8637425026631511E-01 
   -3.9410621598841616E-01 
   -3.9186223845966961E-01 
   -3.8414339545129728E-01 
   -3.8232166968946002E-01 
   -3.9003074538864912E-01 
   -3.8862234008861546E-01 
   -3.8091903655153231E-01 
   -3.7994578846628446E-01 
   -3.8764797809636842E-01 
   -3.8711883145944226E-01 
   -3.7941238814032624E-01 
   -3.7932931604207054E-01 
   -3.8704616775837580E-01 
   -3.8744124222621407E-01 
   -3.7970692779574949E-01 
   -3.8055532282810423E-01 
   -3.8831519991596186E-01 
   -3.8967898400738826E-01 
   -3.8188422330282285E-01 
   -3.8370286037681167E-01 
   -3.9154324562218301E-01 
   -3.9391824978611223E-01 
   -3.8601986322794496E-01 
   -3.8884314521798113E-01 
   -3.9681377145880858E-01 
   -4.0023897494862598E-01 
   -3.9217978102035805E-01 
   -3.9603586860900419E-01 
   -4.0420226969141099E-01 
   -4.0871113549970034E-01 
   -4.0041637074744302E-01 
   -4.0532493216913662E-01 
   -4.1377191126274371E-01 
   -4.1938954308452414E-01 
   -4.1076367119692131E-01 
   -4.1673294835058849E-01 
   -4.2556729148768130E-01 
   -4.3230640315661201E-01 
   -4.2323111974700617E-01 
   -4.3025428984576103E-01 
   -4.3960576123984740E-01 
   -4.4746153960147672E-01 
   -4.3779608597584374E-01 
   -4.4584748503230853E-01 
   -4.5586689983826079E-01 
   -4.6481178300387865E-01 
   -4.5439672867979014E-01 
   -4.6342936412885649E-01 
   -4.7428285614741295E-01 
   -4.8426366986851749E-01 
   -4.7292843911755217E-01 
   -4.8287485883399817E-01 
   -4.9473505894157049E-01 
   -5.0567576856389596E-01 
   -4.9324787908238465E-01 
   -5.0402567038181711E-01 
   -5.1706321908151620E-01 
   -5.2887425481290140E-01 
   -5.1518585634034497E-01 
   -4.0830117813638772E-01 
   -4.1760472710408325E-01 
   -4.1451492737168510E-01 
   -4.0523916977633018E-01 
   -4.0257018262632221E-01 
   -4.1181602491456049E-01 
   -4.0951912052102113E-01 
   -4.0030439865767614E-01 
   -3.9845269354752377E-01 
   -4.0763603907088347E-01 
   -4.0617910011641922E-01 
   -3.9702645412906501E-01 
   -3.9603742803143238E-01 
   -4.0516095917578421E-01 
   -4.0459451156342163E-01 
   -3.9549760684296026E-01 
   -3.9541913668006662E-01 
   -4.0449284067475100E-01 
   -4.0486919230122032E-01 
   -3.9581424763378903E-01 
   -3.9669519378100476E-01 
   -4.0573696008076043E-01 
   -4.0710967110959534E-01 
   -3.9807419644287373E-01 
   -3.9996338415324961E-01 
   -4.0900096352990367E-01 
   -4.1142454920685229E-01 
   -4.0237472301140431E-01 
   -4.0531993074545686E-01 
   -4.1439415458897516E-01 
   -4.1792343184214542E-01 
   -4.0881036707792157E-01 
   -4.1285689210416304E-01 
   -4.2202583071011834E-01 
   -4.2671441964122364E-01 
   -4.1746968366602455E-01 
   -4.2265800451998509E-01 
   -4.3200164296776200E-01 
   -4.3789899997310527E-01 
   -4.2842991101779770E-01 
   -4.3479189782364808E-01 
   -4.4441663253903485E-01 
   -4.5156281227707168E-01 
   -4.4174847893141339E-01 
   -4.4930171514679595E-01 
   -4.5934332780241144E-01 
   -4.6776079082318017E-01 
   -4.5745071336923937E-01 
   -4.6619114373949527E-01 
   -4.7681390856795303E-01 
   -4.8649681049552890E-01 
   -4.7551484524018039E-01 
   -4.8540961303838226E-01 
   -4.9679856483859919E-01 
   -5.0770306096452900E-01 
   -4.9585927056303208E-01 
   -5.0684410929414114E-01 
   -5.1918943787300786E-01 
   -5.3123316549814492E-01 
   -5.1834171218175684E-01 
   -5.3032805791936144E-01 
   -5.4380769777833260E-01 
   -5.5688633100482765E-01 
   -5.4277866189594082E-01 
   -4.2775450577266877E-01 
   -4.3880398392607850E-01 
   -4.3564133070451427E-01 
   -4.2463136838686977E-01 
   -4.2189459731535867E-01 
   -4.3285784816995054E-01 
   -4.3046740443955051E-01 