# vtk DataFile Version 2.0
Pressure Field Data 
ASCII 
DATASET UNSTRUCTURED_GRID 

POINTS 16129 float 

    0.0000000000000000E+00     0.0000000000000000E+00     0.0000000000000000E+00 
    1.0000000000000000E+00     0.0000000000000000E+00     0.0000000000000000E+00 
    1.0000000000000000E+00     1.0000000000000000E+00     0.0000000000000000E+00 
    0.0000000000000000E+00     1.0000000000000000E+00     0.0000000000000000E+00 
    7.9365079364928596E-03     0.0000000000000000E+00     0.0000000000000000E+00 
    1.5873015872985889E-02     0.0000000000000000E+00     0.0000000000000000E+00 
    2.3809523809478560E-02     0.0000000000000000E+00     0.0000000000000000E+00 
    3.1746031745971133E-02     0.0000000000000000E+00     0.0000000000000000E+00 
    3.9682539682461722E-02     0.0000000000000000E+00     0.0000000000000000E+00 
    4.7619047618952311E-02     0.0000000000000000E+00     0.0000000000000000E+00 
    5.5555555555443219E-02     0.0000000000000000E+00     0.0000000000000000E+00 
    6.3492063491934717E-02     0.0000000000000000E+00     0.0000000000000000E+00 
    7.1428571428429913E-02     0.0000000000000000E+00     0.0000000000000000E+00 
    7.9365079364925109E-02     0.0000000000000000E+00     0.0000000000000000E+00 
    8.7301587301420888E-02     0.0000000000000000E+00     0.0000000000000000E+00 
    9.5238095237916653E-02     0.0000000000000000E+00     0.0000000000000000E+00 
    1.0317460317441240E-01     0.0000000000000000E+00     0.0000000000000000E+00 
    1.1111111111090820E-01     0.0000000000000000E+00     0.0000000000000000E+00 
    1.1904761904740280E-01     0.0000000000000000E+00     0.0000000000000000E+00 
    1.2698412698389500E-01     0.0000000000000000E+00     0.0000000000000000E+00 
    1.3492063492038081E-01     0.0000000000000000E+00     0.0000000000000000E+00 
    1.4285714285686660E-01     0.0000000000000000E+00     0.0000000000000000E+00 
    1.5079365079335130E-01     0.0000000000000000E+00     0.0000000000000000E+00 
    1.5873015872983609E-01     0.0000000000000000E+00     0.0000000000000000E+00 
    1.6666666666632091E-01     0.0000000000000000E+00     0.0000000000000000E+00 
    1.7460317460280561E-01     0.0000000000000000E+00     0.0000000000000000E+00 
    1.8253968253929040E-01     0.0000000000000000E+00     0.0000000000000000E+00 
    1.9047619047577519E-01     0.0000000000000000E+00     0.0000000000000000E+00 
    1.9841269841226000E-01     0.0000000000000000E+00     0.0000000000000000E+00 
    2.0634920634874471E-01     0.0000000000000000E+00     0.0000000000000000E+00 
    2.1428571428522949E-01     0.0000000000000000E+00     0.0000000000000000E+00 
    2.2222222222171431E-01     0.0000000000000000E+00     0.0000000000000000E+00 
    2.3015873015819899E-01     0.0000000000000000E+00     0.0000000000000000E+00 
    2.3809523809468380E-01     0.0000000000000000E+00     0.0000000000000000E+00 
    2.4603174603116859E-01     0.0000000000000000E+00     0.0000000000000000E+00 
    2.5396825396765332E-01     0.0000000000000000E+00     0.0000000000000000E+00 
    2.6190476190413808E-01     0.0000000000000000E+00     0.0000000000000000E+00 
    2.6984126984062279E-01     0.0000000000000000E+00     0.0000000000000000E+00 
    2.7777777777710772E-01     0.0000000000000000E+00     0.0000000000000000E+00 
    2.8571428571359242E-01     0.0000000000000000E+00     0.0000000000000000E+00 
    2.9365079365007718E-01     0.0000000000000000E+00     0.0000000000000000E+00 
    3.0158730158656188E-01     0.0000000000000000E+00     0.0000000000000000E+00 
    3.0952380952304670E-01     0.0000000000000000E+00     0.0000000000000000E+00 
    3.1746031745953152E-01     0.0000000000000000E+00     0.0000000000000000E+00 
    3.2539682539601628E-01     0.0000000000000000E+00     0.0000000000000000E+00 
    3.3333333333250098E-01     0.0000000000000000E+00     0.0000000000000000E+00 
    3.4126984126898580E-01     0.0000000000000000E+00     0.0000000000000000E+00 
    3.4920634920547061E-01     0.0000000000000000E+00     0.0000000000000000E+00 
    3.5714285714195543E-01     0.0000000000000000E+00     0.0000000000000000E+00 
    3.6507936507844008E-01     0.0000000000000000E+00     0.0000000000000000E+00 
    3.7301587301492489E-01     0.0000000000000000E+00     0.0000000000000000E+00 
    3.8095238095140971E-01     0.0000000000000000E+00     0.0000000000000000E+00 
    3.8888888888789441E-01     0.0000000000000000E+00     0.0000000000000000E+00 
    3.9682539682437917E-01     0.0000000000000000E+00     0.0000000000000000E+00 
    4.0476190476086388E-01     0.0000000000000000E+00     0.0000000000000000E+00 
    4.1269841269734880E-01     0.0000000000000000E+00     0.0000000000000000E+00 
    4.2063492063383351E-01     0.0000000000000000E+00     0.0000000000000000E+00 
    4.2857142857031832E-01     0.0000000000000000E+00     0.0000000000000000E+00 
    4.3650793650680297E-01     0.0000000000000000E+00     0.0000000000000000E+00 
    4.4444444444328779E-01     0.0000000000000000E+00     0.0000000000000000E+00 
    4.5238095237977261E-01     0.0000000000000000E+00     0.0000000000000000E+00 
    4.6031746031625742E-01     0.0000000000000000E+00     0.0000000000000000E+00 
    4.6825396825274213E-01     0.0000000000000000E+00     0.0000000000000000E+00 
    4.7619047618922689E-01     0.0000000000000000E+00     0.0000000000000000E+00 
    4.8412698412571170E-01     0.0000000000000000E+00     0.0000000000000000E+00 
    4.9206349206219652E-01     0.0000000000000000E+00     0.0000000000000000E+00 
    4.9999999999868122E-01     0.0000000000000000E+00     0.0000000000000000E+00 
    5.0793650793521006E-01     0.0000000000000000E+00     0.0000000000000000E+00 
    5.1587301587173895E-01     0.0000000000000000E+00     0.0000000000000000E+00 
    5.2380952380826784E-01     0.0000000000000000E+00     0.0000000000000000E+00 
    5.3174603174479662E-01     0.0000000000000000E+00     0.0000000000000000E+00 
    5.3968253968132551E-01     0.0000000000000000E+00     0.0000000000000000E+00 
    5.4761904761785440E-01     0.0000000000000000E+00     0.0000000000000000E+00 
    5.5555555555438330E-01     0.0000000000000000E+00     0.0000000000000000E+00 
    5.6349206349091219E-01     0.0000000000000000E+00     0.0000000000000000E+00 
    5.7142857142744108E-01     0.0000000000000000E+00     0.0000000000000000E+00 
    5.7936507936396986E-01     0.0000000000000000E+00     0.0000000000000000E+00 
    5.8730158730049864E-01     0.0000000000000000E+00     0.0000000000000000E+00 
    5.9523809523702753E-01     0.0000000000000000E+00     0.0000000000000000E+00 
    6.0317460317355642E-01     0.0000000000000000E+00     0.0000000000000000E+00 
    6.1111111111008531E-01     0.0000000000000000E+00     0.0000000000000000E+00 
    6.1904761904661421E-01     0.0000000000000000E+00     0.0000000000000000E+00 
    6.2698412698314310E-01     0.0000000000000000E+00     0.0000000000000000E+00 
    6.3492063491967199E-01     0.0000000000000000E+00     0.0000000000000000E+00 
    6.4285714285620077E-01     0.0000000000000000E+00     0.0000000000000000E+00 
    6.5079365079272966E-01     0.0000000000000000E+00     0.0000000000000000E+00 
    6.5873015872925855E-01     0.0000000000000000E+00     0.0000000000000000E+00 
    6.6666666666578744E-01     0.0000000000000000E+00     0.0000000000000000E+00 
    6.7460317460231634E-01     0.0000000000000000E+00     0.0000000000000000E+00 
    6.8253968253884523E-01     0.0000000000000000E+00     0.0000000000000000E+00 
    6.9047619047537401E-01     0.0000000000000000E+00     0.0000000000000000E+00 
    6.9841269841190290E-01     0.0000000000000000E+00     0.0000000000000000E+00 
    7.0634920634843179E-01     0.0000000000000000E+00     0.0000000000000000E+00 
    7.1428571428496068E-01     0.0000000000000000E+00     0.0000000000000000E+00 
    7.2222222222148957E-01     0.0000000000000000E+00     0.0000000000000000E+00 
    7.3015873015801847E-01     0.0000000000000000E+00     0.0000000000000000E+00 
    7.3809523809454725E-01     0.0000000000000000E+00     0.0000000000000000E+00 
    7.4603174603107614E-01     0.0000000000000000E+00     0.0000000000000000E+00 
    7.5396825396760492E-01     0.0000000000000000E+00     0.0000000000000000E+00 
    7.6190476190413381E-01     0.0000000000000000E+00     0.0000000000000000E+00 
    7.6984126984066270E-01     0.0000000000000000E+00     0.0000000000000000E+00 
    7.7777777777719159E-01     0.0000000000000000E+00     0.0000000000000000E+00 
    7.8571428571372037E-01     0.0000000000000000E+00     0.0000000000000000E+00 
    7.9365079365024926E-01     0.0000000000000000E+00     0.0000000000000000E+00 
    8.0158730158677816E-01     0.0000000000000000E+00     0.0000000000000000E+00 
    8.0952380952330705E-01     0.0000000000000000E+00     0.0000000000000000E+00 
    8.1746031745983594E-01     0.0000000000000000E+00     0.0000000000000000E+00 
    8.2539682539636483E-01     0.0000000000000000E+00     0.0000000000000000E+00 
    8.3333333333289361E-01     0.0000000000000000E+00     0.0000000000000000E+00 
    8.4126984126942250E-01     0.0000000000000000E+00     0.0000000000000000E+00 
    8.4920634920595139E-01     0.0000000000000000E+00     0.0000000000000000E+00 
    8.5714285714248029E-01     0.0000000000000000E+00     0.0000000000000000E+00 
    8.6507936507900918E-01     0.0000000000000000E+00     0.0000000000000000E+00 
    8.7301587301553807E-01     0.0000000000000000E+00     0.0000000000000000E+00 
    8.8095238095206685E-01     0.0000000000000000E+00     0.0000000000000000E+00 
    8.8888888888859574E-01     0.0000000000000000E+00     0.0000000000000000E+00 
    8.9682539682512463E-01     0.0000000000000000E+00     0.0000000000000000E+00 
    9.0476190476165352E-01     0.0000000000000000E+00     0.0000000000000000E+00 
    9.1269841269818230E-01     0.0000000000000000E+00     0.0000000000000000E+00 
    9.2063492063471120E-01     0.0000000000000000E+00     0.0000000000000000E+00 
[...]
CELL_DATA 15876 
SCALARS Pressure float 1 
LOOKUP_TABLE default 

    4.0517812490037386E-05 
    9.6590822762365747E-06 
    7.2080029278609459E-06 
    9.6590855651612628E-06 
    2.7505503892299998E-06 
    3.8075846520158052E-06 
    1.9717749522030203E-06 
    9.8175943286094025E-07 
    4.3843286512412760E-07 
    1.0804814429832277E-06 
    6.3839446262647925E-07 
    2.3398138360164467E-07 
    1.4165536210697383E-07 
    4.0574350279598548E-07 
    2.7494884147216681E-07 
    9.3736449713333059E-08 
    6.6291105049742782E-08 
    1.9684641827666383E-07 
    1.4779549761811950E-07 
    4.9444905947382267E-08 
    3.8579536010274751E-08 
    1.1572587776953469E-07 
    9.4103926429056628E-08 
    3.1317833659727512E-08 
    2.6343697889785744E-08 
    7.9201827318797768E-08 
    6.8793179153203710E-08 
    2.2885960682117457E-08 
    2.0471841999381013E-08 
    6.1495430081492941E-08 
    5.6421339600376541E-08 
    1.8800677459296367E-08 
    1.7675502839153978E-08 
    5.2985777543312906E-08 
    5.0794305650470051E-08 
    1.6964227356197625E-08 
    1.6576724881645077E-08 
    4.9576638794235350E-08 
    4.9145735481204156E-08 
    1.6450864670503051E-08 
    1.6543737935137415E-08 
    4.9371952748344938E-08 
    5.0166414133911985E-08 
    1.6826075643905369E-08 
    1.7278578567925251E-08 
    5.1470117945484617E-08 
    5.3246739462053938E-08 
    1.7889523640235439E-08 
    1.8653182998207285E-08 
    5.5477913818435809E-08 
    5.8160212645930187E-08 
    1.9568843434569771E-08 
    2.0640195330656752E-08 
    6.1303314424776545E-08 
    6.4929091436738418E-08 
    2.1875064426524204E-08 
    2.3285372741099764E-08 
    6.9071465880199412E-08 
    7.3776898368294042E-08 
    2.4887326866007697E-08 
    2.6701833633069327E-08 
    7.9105507033716549E-08 
    8.5132875859983415E-08 
    2.8755141379122051E-08 
    3.1079749440721116E-08 
    9.1952601977141057E-08 
    9.9679775544814220E-08 
    3.3715635616715645E-08 
    3.6711902851038758E-08 
    1.0845559739180999E-07 
    1.1845345859740064E-07 
    4.0128933065375350E-08 
    4.4041261304528234E-08 
    1.2988700248683926E-07 
    1.4302076500882777E-07 
    4.8541391350909180E-08 
    5.3744871664207494E-08 
    1.5818440513015730E-07 
    1.7579183531069020E-07 
    5.9797222284885265E-08 
    6.6883335314571468E-08 
    1.9636727444094504E-07 
    2.2058111426304094E-07 
    7.5240553343292049E-08 
    8.5176986353019402E-08 
    2.4929997888278876E-07 
    2.8365766802096459E-07 
    9.7097707651983001E-08 
    1.1154273416025262E-07 
    3.2515726378079535E-07 
    3.7582085443688129E-07 
    1.2924327474905795E-07 
    1.5120678398261589E-07 
    4.3841340691130881E-07 
    5.1678500945229189E-07 
    1.7884875713747306E-07 
    2.1420253570880732E-07 
    6.1640693171938210E-07 
    7.4523451143448938E-07 
    2.6026376076515589E-07 
    3.2157644547226027E-07 
    9.1513919198149551E-07 
    1.1443680234535236E-06 
    4.0527217493036005E-07 
    5.2300525421600241E-07 
    1.4619334587351318E-06 
    1.9157923576429425E-06 
    6.9477431985376370E-07 
    9.5702846270029340E-07 
    2.5888207337843028E-06 
    3.6316161349247977E-06 
    1.3814236128339985E-06 
    2.1229543349932101E-06 
    5.3332775467040960E-06 
    8.2807245380678296E-06 
    3.5587488378396870E-06 
    6.7396396845609274E-06 
    1.3725104778927744E-05 
    2.4400192508267082E-05 
    1.5034579855743857E-05 
    4.0717941767631771E-05 
    4.6049309093909585E-05 
    8.8017791866512596E-05 
    1.3340635134717616E-04 
    5.0989096568176961E-04 
    1.4497743348407255E-04 
    9.7288225823888297E-05 
    4.6730661389826622E-04 
    1.0978436966890825E-04 
    7.5947119945851682E-05 
    3.9598813104113617E-05 
    3.0398015076649187E-05 
    1.0380304340529278E-05 
    1.9882950659244614E-05 
    1.0436168155436576E-05 
    4.3796085362757253E-06 
    2.1926602329358502E-06 
    5.8487938954243646E-06 
    3.4954175225365702E-06 
    1.2389682790825418E-06 
    7.6043272745351942E-07 
    2.2076394801118226E-06 
    1.4586136973804287E-06 
    4.9461379081350287E-07 
    3.3568241697423673E-07 
    9.9919198692788314E-07 
    7.0451486777756145E-07 
    2.3527802817113752E-07 
    1.6906773492308957E-07 
    5.0830909081867048E-07 
    3.7350673931513256E-07 
    1.2387225378773792E-07 
    9.2129250894856796E-08 
    2.7839836391763129E-07 
    2.0975144732204853E-07 
    6.9292395821207720E-08 
    5.2520794824317818E-08 
    1.5921639917593211E-07 
    1.2136359295311649E-07 
    3.9980176502751874E-08 
    3.0452353527721243E-08 
    9.2567707277169120E-08 
    7.0350917980022132E-08 
    2.3108125191129147E-08 
    1.7370624050272454E-08 
    5.2983962106623039E-08 
    3.9236996762781473E-08 
    1.2830600581992258E-08 
    9.1924849954239107E-09 
    2.8220088488239981E-08 
    1.9278740381878379E-08 
    6.2392091493279622E-09 
    3.8088066034447365E-09 
    1.1924057297107993E-08 
    5.7851563539657036E-09 
    1.7784866912506914E-09 
    5.3627324803073861E-11 
    5.7617821624944554E-10 
    3.9270613427788703E-09 
    1.4399987868785047E-09 
    2.7617939046820084E-09 
    7.9038309230838877E-09 
    1.1500793650753849E-08 
    3.9604319823638434E-09 
    5.0769437542896867E-09 
    1.4841272211185697E-08 
    1.8032408455326276E-08 
    6.1471019385805903E-09 
    7.2033521369974096E-09 
    2.1170944553006166E-08 
    2.4348107086069604E-08 
    8.2764639586230260E-09 
    9.3970231596074427E-09 
    2.7654023959655660E-08 
    3.1182019188946697E-08 
    1.0596906463433697E-08 
    1.1910844310847324E-08 
    3.5033104861525999E-08 
    3.9321054856600313E-08 
    1.3378190555357605E-08 
    1.5045072743191668E-08 
    4.4178457780930103E-08 
    4.9764325549261912E-08 
    1.6967100613385355E-08 
    1.9212935242762796E-08 
    5.6273990800548290E-08 
    6.3952362072683400E-08 
    2.1869083877135154E-08 
    2.5046536400452624E-08 
    7.3112098153416127E-08 
    8.4159040625308990E-08 
    2.8890115189028620E-08 
    3.3591911918762207E-08 
    9.7628465312027402E-08 
    1.1423779389119204E-07 
    3.9410997132449666E-08 
    4.6702925526886929E-08 
    1.3496466655382733E-07 
    1.6116510970221043E-07 
    5.5964902490046597E-08 
    6.7906703815623359E-08 
    1.9475642032418250E-07 
    2.3850732144836684E-07 
    8.3565072195312950E-08 
    1.0449422216396442E-07 
    2.9651124355822844E-07 
    3.7498233962374172E-07 
    1.3309456714516443E-07 
    1.7320427558864537E-07 
    4.8364121618682532E-07 
    6.3822197615692744E-07 
    2.3121746983711944E-07 
    3.1832672697795772E-07 
    8.6520627218256152E-07 
    1.2111908718193121E-06 
    4.5535458337297996E-07 
    6.8410851228328795E-07 
    1.7623607049266354E-06 
    2.6869736375889630E-06 
    1.0969579600228485E-06 
    1.9232743375674488E-06 
    4.3318611804288309E-06 
    7.4457008967243610E-06 
    3.8137753173295152E-06 
    8.8845334798026698E-06 
    1.3677959508573423E-05 
    2.6495365090584144E-05 
    2.4922988691056247E-05 
    8.3613009846494890E-05 
    5.1390183918309518E-05 
    8.3613009913552361E-05 
    3.2394489886811151E-04 
    2.7505361019919405E-06 
    9.8172272799956772E-07 
    1.9716906161093561E-06 
    3.8075590937935999E-06 
    2.9572765773977494E-06 
    1.9848281080925290E-06 
    1.6199865537913638E-06 
    1.9849082555367659E-06 
    1.2924796273239281E-06 
    1.2200310823828886E-06 
    8.9641185940791956E-07 
    8.5400743898844667E-07 
    5.8298378924348526E-07 
    6.6049356295394546E-07 
    4.9490728226686542E-07 
    4.1359359759240988E-07 
    3.0512751880706901E-07 
    3.7973583477679540E-07 
    2.9931336253952168E-07 
    2.3375624635946224E-07 
    1.8558694403481013E-07 
    2.4264852882538435E-07 
    2.0233881681264165E-07 
    1.5238127204497687E-07 
    1.2912905145157083E-07 
    1.7345164327053908E-07 
    1.5268890596331630E-07 
    1.1269842659089591E-07 
    1.0107867165487505E-07 
    1.3782322305644357E-07 
    1.2733138810006039E-07 
    9.2946890184464337E-08 
    8.7413914329204090E-08 
    1.2015848227520110E-07 
    1.1556567969250864E-07 
    8.3871442235761151E-08 
    8.1897778336781357E-08 
    1.1303125901918065E-07 
    1.1218543072288867E-07 
    8.1198350265765384E-08 
    8.1567445242569647E-08 
    1.1276697708950678E-07 
    1.1459407289748924E-07 
    8.2863106598551894E-08 
    8.4990518622873878E-08 
    1.1754451989531844E-07 
    1.2154235840000638E-07 
    8.7890938971213473E-08 
    9.1534307244955926E-08 
    1.2654882119988997E-07 
    1.3255646713616898E-07 
    9.5914525211071577E-08 
    1.0104654624143450E-07 
    1.3958556621673779E-07 
    1.4768229039674452E-07 
    1.0696492758199838E-07 
    1.1372354702388066E-07 
    1.5691836008357996E-07 
    1.6739200514592767E-07 
    1.2139634364416452E-07 
    1.3007903554296263E-07 
    1.7923018091892118E-07 
    1.9259211470057380E-07 
    1.3989191138819024E-07 
    1.5098376149325077E-07 
    2.0767434616431046E-07 
    2.2471753791108995E-07 
    1.6353726284279446E-07 
    1.7777606764468601E-07 
    2.4401546472319069E-07 
    2.6592677837555811E-07 
    1.9397416384236976E-07 
    2.1246817194509049E-07 
    2.9089039532692595E-07 
    3.1944562728369874E-07 
    2.3367354895498238E-07 
    2.5810608228482579E-07 
    3.5225866490407043E-07 
    3.9015771324812931E-07 
    2.8641066052159658E-07 
    3.1940010547515385E-07 
    4.3417991069105710E-07 
    4.8563469423612560E-07 
    3.5810818488357654E-07 
    4.0386294575256443E-07 
    5.4619017841872619E-07 
    6.1799232131676263E-07 
    4.5838938511622018E-07 
    5.2395541505489973E-07 
    7.0383130612583500E-07 
    8.0737686225518246E-07 
    6.0358263986870497E-07 
    7.0135601593079855E-07 
    9.3351561769594582E-07 
    1.0888416266396916E-06 
    8.2288736802382800E-07 
    9.7602329063306570E-07 
    1.2823798956063115E-06 
    1.5266690205351097E-06 
    1.1719500703222252E-06 
    1.4269589163617979E-06 
    1.8394030663060335E-06 
    2.2459503616900633E-06 
    1.7653359485336750E-06 
    2.2242140857997583E-06 
    2.7832454030374265E-06 
    3.5057960925399811E-06 
    2.8619204686108901E-06 
    3.7726461599163486E-06 
    4.4947961734820296E-06 
    5.8712442196906522E-06 
    5.1125660442963294E-06 
    7.1461042630005522E-06 
    7.8123208462343996E-06 
    1.0563214051906300E-05 
    1.0324109542381166E-05 
    1.5395938695483835E-05 
    1.4413280512215465E-05 
    1.9539594720008324E-05 
    2.3478414313160556E-05 
    3.5641480652159885E-05 
    2.5466498481563349E-05 
    2.9655659221639041E-05 
    5.0246777461460113E-05 
    5.2640426210892599E-05 
    2.5029660786657359E-05 
    3.2651056436350245E-07 
    1.7491028052596391E-05 
    3.4746045944444859E-05 
    1.3830082271404365E-05 
    1.6244465717463186E-05 
    2.8002934063131590E-05 
    1.8626634080476379E-05 
    1.3681461067172052E-05 
    1.0221896844520018E-05 
    1.1782186722264498E-05 
    7.4616462040211218E-06 
    7.2953362977301595E-06 
    5.1421880113977636E-06 
    4.8272158128526144E-06 
    3.2104711955582843E-06 
    3.6369883371634160E-06 
    2.5998700623475202E-06 
    2.1953168536370526E-06 
    1.5395743115931282E-06 
    1.8833038444299177E-06 
    1.3827801375043691E-06 
    1.1036341112102832E-06 
    8.0588464435038532E-07 
    1.0280707067877870E-06 
    7.7274523402337536E-07 
    5.9747600289483671E-07 
    4.4837110646511746E-07 
    5.8608579678320893E-07 
    4.4758578088277545E-07 
    3.3959447165443635E-07 
    2.5884591092761866E-07 
    3.4337638954440308E-07 
    2.6393921803702369E-07 
    1.9795932360011648E-07 
    1.5139286446697042E-07 
    2.0264180466966764E-07 
    1.5479276704866152E-07 
    1.1530931587344639E-07 
    8.7002365312116581E-08 
    1.1702511582001307E-07 
    8.6888301886745012E-08 
    6.4530595089706821E-08 
    4.6479056159398624E-08 
    6.2574542880611261E-08 
    4.2732557048452691E-08 
    3.1800873934173524E-08 
    1.9710118870364113E-08 
    2.6339001202302370E-08 
    1.2608450283835282E-08 
    9.6080707834289569E-09 
    1.0316361098716698E-09 
    9.2951735197743801E-10 
    9.1811802604979675E-09 
    6.3833511809718857E-09 
    1.2928691006663939E-08 
    1.8112687349969292E-08 
    2.6184775681059591E-08 
    1.8843406390800510E-08 
    2.4328517422844698E-08 
    3.3667000298720495E-08 
    4.0793580069475865E-08 
    2.9558529401896294E-08 
    3.4690668115899825E-08 
    4.7775437383990038E-08 
    5.4810385563541786E-08 
    3.9872710910771048E-08 
    4.5249994862217591E-08 
    6.2092265107338562E-08 
    6.9819703796270005E-08 
    5.0972208232025196E-08 
    5.7200429726123048E-08 
    7.8205136588849200E-08 
    8.7484748778621224E-08 
    6.4114965780959210E-08 
    7.1924652456090143E-08 
    9.7930090259268354E-08 
    1.0986233922594124E-07 
    8.0878379549176316E-08 
    9.1279964031798499E-08 
    1.2367041479777185E-07 
    1.3983470470435577E-07 
    1.0350785739632329E-07 
    1.1804188515540659E-07 
    1.5895877147897863E-07 
    1.8181257654958927E-07 
    1.3550025901309937E-07 
    1.5669167652276883E-07 
    2.0939230527261543E-07 
    2.4300446632707917E-07 
    1.8269001689219522E-07 
    2.1494326585269619E-07 
    2.8438584509515863E-07 
    3.3587706305127085E-07 
    2.5543527026883339E-07 
    3.0693065333764480E-07 
    4.0067740680882480E-07 
    4.8322441736914357E-07 
    3.7335326119602996E-07 
    4.6038390211222691E-07 
    5.8976727412840546E-07 
    7.2924418414999082E-07 
    5.7642658624068588E-07 
    7.3420883617281163E-07 
    9.1463895390830885E-07 
    1.1650900264559283E-06 
    9.5349827522461794E-07 
    1.2658246522079253E-06 
    1.5091562786118118E-06 
    1.9897601397644848E-06 
    1.7228527200430221E-06 
    2.4113904437683686E-06 
    2.6712061518274766E-06 
    3.6475219464815467E-06 
    3.4800432489046074E-06 
    5.1839853489887844E-06 
    5.0467389425268294E-06 
    7.0107972307553723E-06 
    7.9470706215722942E-06 
    1.2387983619133180E-05 
    9.5891451139529238E-06 
    1.2387987346151874E-05 
    1.9021382940520581E-05 
    2.6495366025391931E-05 
    1.3677963019986805E-05 
    8.8845347459010071E-06 
    2.4922989098064008E-05 
    4.3835897223232223E-07 
    2.3385240766060633E-07 
    6.3805349714840531E-07 
    1.0802950960453472E-06 
    1.2922482772736998E-06 
    8.5353832179890787E-07 
    8.9593432583967569E-07 
    1.2198523373641024E-06 
    1.0339797960057240E-06 
    8.3394923144908262E-07 
    7.2846473653243038E-07 
    8.3428127606310909E-07 
    6.6116537666971453E-07 
    6.1647843985213058E-07 
    5.1540013146222918E-07 
    5.2398622685245755E-07 
    4.1970728759110898E-07 
    4.3101730540229255E-07 
    3.6347264043001815E-07 
    3.4190646136522673E-07 
    2.8429424236975365E-07 
    3.1069632111524470E-07 
    2.7008314607002148E-07 
    2.4174640778085177E-07 
    2.1038462882927433E-07 
    2.3919542613271005E-07 
    2.1599188748666620E-07 
    1.8736710494238196E-07 
    1.7063876533995881E-07 
    1.9885159829868826E-07 
    1.8652266575713838E-07 
    1.5871872616202154E-07 
    1.5053877966408891E-07 
    1.7805296881334698E-07 
    1.7272515773214536E-07 
    1.4532653569432341E-07 
    1.4252267899195203E-07 
    1.7000284024959456E-07 
    1.6948854497655930E-07 
    1.4172289830582940E-07 
    1.4263725933716387E-07 
    1.7089192994035329E-07 
    1.7400618634866305E-07 
    1.4506177681283816E-07 
    1.4885852550605705E-07 
    1.7869075819021418E-07 
    1.8485894059949715E-07 
    1.5394182550920732E-07 
    1.6026877069919010E-07 
    1.9246916949100523E-07 
    2.0151913471266880E-07 
    1.6783296796774039E-07 
    1.7666068341526397E-07 
    2.1204222111492754E-07 
    2.2410576061560050E-07 
    1.8680893010269983E-07 
    1.9836518383442581E-07 
    2.3781095670472041E-07 
    2.5329426822651158E-07 
    2.1144854756016684E-07 
    2.2621235373776472E-07 
    2.7073031727553598E-07 
    2.9033632387154285E-07 
    2.4284826771747703E-07 
    2.6159207777709526E-07 
    3.1237832764929863E-07 
    3.3717946212874494E-07 
    2.8273148711122076E-07 
    3.0661630390227401E-07 
    3.6513073364830007E-07 
    3.9670487161913570E-07 
    3.3367172758147490E-07 
    3.6441553863397758E-07 
    4.3247414271974094E-07 
    4.7313319040398483E-07 
    3.9948041941073598E-07 
    4.3964301621457480E-07 
    5.1952840784963428E-07 
    5.7269588982222785E-07 
    4.8586203771350256E-07 
    5.3932848853577298E-07 
    6.3391066174034449E-07 
    7.0475094293698248E-07 
    6.0153244163529962E-07 
    6.7435257289361061E-07 
    7.8718243567976742E-07 
    8.8366950556917345E-07 
    7.6017719408127959E-07 
    8.6206941762867473E-07 
    9.9732258007634300E-07 
    1.1320942805426171E-06 
    9.8399457826303660E-07 
    1.1311360594845610E-06 
    1.2930409463152159E-06 
    1.4866711808281252E-06 
    1.3103374936207501E-06 
    1.5307259726426992E-06 
    1.7214079237604096E-06 
    2.0081933076454561E-06 
    1.8045938396937800E-06 
    2.1486456303065893E-06 
    2.3612598667455131E-06 
    2.7990638473696094E-06 
    2.5857462855327640E-06 
    3.1473156818506709E-06 
    3.3452945533696266E-06 
    4.0296704080233781E-06 
    3.8764384493461534E-06 
    4.8314253140446795E-06 
    4.8877713618722396E-06 
    5.9581813287579166E-06 
    6.0885421255818528E-06 
    7.7399171134473477E-06 
    7.2733064424568283E-06 
    8.8369234845231404E-06 
    9.8761604263586378E-06 
    1.2529449224807365E-05 
    1.0577022765190236E-05 
    1.2260521207174691E-05 
    1.5528972336475988E-05 
    1.8199255885420484E-05 
    1.3371606751633180E-05 
    1.3027415634248030E-05 
    1.8897404475026747E-05 
    1.4844115203693775E-05 
    1.0198208114431395E-05 
    4.7639117299880240E-06 
    4.1978879554704918E-06 
    4.5499299208273669E-06 
    5.2230453650992104E-07 
    3.8718907919843559E-06 
    8.4419795145507237E-06 
    8.8586370248222579E-06 
    5.2335755018617647E-06 
    5.2910758698843097E-06 
    7.7054443199386924E-06 
    6.1568286966462438E-06 
    4.7142277113110254E-06 
    3.9338522599408066E-06 
    4.7261821949362570E-06 
    3.5662417925408363E-06 
    3.1682400276622502E-06 
    2.5040871589609992E-06 
    2.6779289656886363E-06 
    2.0141898655623436E-06 
    1.9610951325077508E-06 
    1.5303028950697239E-06 
    1.5222662446134905E-06 
    1.1574128864211275E-06 
    1.1934459145379606E-06 
    9.3151000157831731E-07 
    8.8530657826879633E-07 
    6.8073645742572353E-07 
    7.2789564065089962E-07 
    5.6916498092363099E-07 
    5.2551709206483110E-07 
    4.0659875111259680E-07 
    4.4483408156992255E-07 
    3.4687107142161722E-07 
    3.1459981109094315E-07 
    2.4273661569651495E-07 
    2.6917115913960288E-07 
    2.0710291881442799E-07 
    1.8606477691918144E-07 
    1.4094722455837427E-07 
    1.5714616274919990E-07 
    1.1661389454076243E-07 
    1.0468207278790942E-07 
    7.5241501917844289E-08 
    8.3442972531599935E-08 
    5.6037935181052489E-08 
    5.1087427621610004E-08 
    3.1040350734201638E-08 
    3.3154778478206026E-08 
    1.3814393184929941E-08 
    1.4185164154412178E-08 
    1.9716361876476185E-10 
    2.7622317766429205E-09 
    1.7202788527015400E-08 
    1.2679726157927007E-08 
    2.3726953735092593E-08 
    3.0020773866823447E-08 
    4.1644034887156067E-08 
    3.3722743708608505E-08 
    4.2992110316220078E-08 
    5.2437130193538906E-08 
    6.2719198279381771E-08 
    5.1818247026602648E-08 
    6.0456442074752204E-08 
    7.2778687076890947E-08 
    8.2885974528323914E-08 
    6.9145899228573171E-08 
    7.8120338642406750E-08 
    9.3304708848052087E-08 
    1.0430261543348252E-07 
    8.7618112765142087E-08 
    9.7892550066092099E-08 
    1.1616244455225910E-07 
    1.2919374547948337E-07 
    1.0922319804151925E-07 
    1.2192880616268553E-07 
    1.4374623313884172E-07 
    1.6022564475193235E-07 
    1.3638298712592700E-07 
    1.5303382250309028E-07 
    1.7911319405428117E-07 
    2.0099009034879600E-07 