# vtk DataFile Version 2.0
Pressure Field Data 
ASCII 
DATASET UNSTRUCTURED_GRID 

POINTS 25 float 

    0.0000000000000000E+00     0.0000000000000000E+00     0.0000000000000000E+00 
    1.0000000000000000E+00     0.0000000000000000E+00     0.0000000000000000E+00 
    1.0000000000000000E+00     1.0000000000000000E+00     0.0000000000000000E+00 
    0.0000000000000000E+00     1.0000000000000000E+00     0.0000000000000000E+00 
    2.5000000000000000E-01     0.0000000000000000E+00     0.0000000000000000E+00 
    5.0000000000000000E-01     0.0000000000000000E+00     0.0000000000000000E+00 
    7.5000000000000000E-01     0.0000000000000000E+00     0.0000000000000000E+00 
    1.0000000000000000E+00     2.5000000000000000E-01     0.0000000000000000E+00 
    1.0000000000000000E+00     5.0000000000000000E-01     0.0000000000000000E+00 
    1.0000000000000000E+00     7.5000000000000000E-01     0.0000000000000000E+00 
    7.5000000000000000E-01     1.0000000000000000E+00     0.0000000000000000E+00 
    5.0000000000000000E-01     1.0000000000000000E+00     0.0000000000000000E+00 
    2.5000000000000000E-01     1.0000000000000000E+00     0.0000000000000000E+00 
    0.0000000000000000E+00     7.5000000000000000E-01     0.0000000000000000E+00 
    0.0000000000000000E+00     5.0000000000000000E-01     0.0000000000000000E+00 
    0.0000000000000000E+00     2.5000000000000000E-01     0.0000000000000000E+00 
    2.5000000000000000E-01     7.5000000000000000E-01     0.0000000000000000E+00 
    5.0000000000000000E-01     7.5000000000000000E-01     0.0000000000000000E+00 
    7.5000000000000000E-01     7.5000000000000000E-01     0.0000000000000000E+00 
    2.5000000000000000E-01     5.0000000000000000E-01     0.0000000000000000E+00 
    5.0000000000000000E-01     5.0000000000000000E-01     0.0000000000000000E+00 
    7.5000000000000000E-01     5.0000000000000000E-01     0.0000000000000000E+00 
    2.5000000000000000E-01     2.5000000000000000E-01     0.0000000000000000E+00 
    5.0000000000000000E-01     2.5000000000000000E-01     0.0000000000000000E+00 
    7.5000000000000000E-01     2.5000000000000000E-01     0.0000000000000000E+00 

CELLS 16 80 

4 3 13 16 12 
4 12 16 17 11 
4 11 17 18 10 
4 10 18 9 2 
4 13 14 19 16 
4 16 19 20 17 
4 17 20 21 18 
4 18 21 8 9 
4 14 15 22 19 
4 19 22 23 20 
4 20 23 24 21 
4 21 24 7 8 
4 15 0 4 22 
4 22 4 5 23 
4 23 5 6 24 
4 24 6 1 7 

CELL_TYPES 16 

7 
7 
7 
7 
7 
7 
7 
7 
7 
7 
7 
7 
7 
7 
7 
7 

CELL_DATA 16 
SCALARS Pressure float 1 
LOOKUP_TABLE default 

    1.0799161123922811E+00 
    1.2347795403756916E+00 
    1.3750455136747659E+00 
    1.4919929734369686E+00 
    1.1011066107095655E+00 
    1.2970335127766868E+00 
    1.4744923096777931E+00 
    1.6224494729292886E+00 
    1.1160107896748401E+00 
    1.3408193800116672E+00 
    1.5444374720312097E+00 
    1.7142050789798946E+00 
    1.1237019796272614E+00 
    1.3634147489293631E+00 
    1.5805321493137687E+00 
    1.7615548724156154E+00 

