# vtk DataFile Version 2.0
Pressure Field Data 
ASCII 
DATASET UNSTRUCTURED_GRID 

POINTS 1089 float 

    0.0000000000000000E+00     0.0000000000000000E+00     0.0000000000000000E+00 
    1.0000000000000000E+00     0.0000000000000000E+00     0.0000000000000000E+00 
    1.0000000000000000E+00     1.0000000000000000E+00     0.0000000000000000E+00 
    0.0000000000000000E+00     1.0000000000000000E+00     0.0000000000000000E+00 
    3.1249999999941821E-02     0.0000000000000000E+00     0.0000000000000000E+00 
    6.2499999999872928E-02     0.0000000000000000E+00     0.0000000000000000E+00 
    9.3749999999823030E-02     0.0000000000000000E+00     0.0000000000000000E+00 
    1.2499999999977310E-01     0.0000000000000000E+00     0.0000000000000000E+00 
    1.5624999999968331E-01     0.0000000000000000E+00     0.0000000000000000E+00 
    1.8749999999959341E-01     0.0000000000000000E+00     0.0000000000000000E+00 
    2.1874999999950220E-01     0.0000000000000000E+00     0.0000000000000000E+00 
    2.4999999999941089E-01     0.0000000000000000E+00     0.0000000000000000E+00 
    2.8124999999931971E-01     0.0000000000000000E+00     0.0000000000000000E+00 
    3.1249999999922851E-01     0.0000000000000000E+00     0.0000000000000000E+00 
    3.4374999999913730E-01     0.0000000000000000E+00     0.0000000000000000E+00 
    3.7499999999904610E-01     0.0000000000000000E+00     0.0000000000000000E+00 
    4.0624999999895478E-01     0.0000000000000000E+00     0.0000000000000000E+00 
    4.3749999999886358E-01     0.0000000000000000E+00     0.0000000000000000E+00 
    4.6874999999877792E-01     0.0000000000000000E+00     0.0000000000000000E+00 
    4.9999999999869210E-01     0.0000000000000000E+00     0.0000000000000000E+00 
    5.3124999999876910E-01     0.0000000000000000E+00     0.0000000000000000E+00 
    5.6249999999884603E-01     0.0000000000000000E+00     0.0000000000000000E+00 
    5.9374999999892841E-01     0.0000000000000000E+00     0.0000000000000000E+00 
    6.2499999999901090E-01     0.0000000000000000E+00     0.0000000000000000E+00 
    6.5624999999909328E-01     0.0000000000000000E+00     0.0000000000000000E+00 
    6.8749999999917577E-01     0.0000000000000000E+00     0.0000000000000000E+00 
    7.1874999999925815E-01     0.0000000000000000E+00     0.0000000000000000E+00 
    7.4999999999934064E-01     0.0000000000000000E+00     0.0000000000000000E+00 
    7.8124999999942302E-01     0.0000000000000000E+00     0.0000000000000000E+00 
    8.1249999999950551E-01     0.0000000000000000E+00     0.0000000000000000E+00 
    8.4374999999958789E-01     0.0000000000000000E+00     0.0000000000000000E+00 
    8.7499999999967026E-01     0.0000000000000000E+00     0.0000000000000000E+00 
    9.0624999999975264E-01     0.0000000000000000E+00     0.0000000000000000E+00 
    9.3749999999983513E-01     0.0000000000000000E+00     0.0000000000000000E+00 
    9.6874999999991751E-01     0.0000000000000000E+00     0.0000000000000000E+00 
    1.0000000000000000E+00     3.1249999999941821E-02     0.0000000000000000E+00 
    1.0000000000000000E+00     6.2499999999872928E-02     0.0000000000000000E+00 
    1.0000000000000000E+00     9.3749999999823030E-02     0.0000000000000000E+00 
    1.0000000000000000E+00     1.2499999999977310E-01     0.0000000000000000E+00 
    1.0000000000000000E+00     1.5624999999968331E-01     0.0000000000000000E+00 
    1.0000000000000000E+00     1.8749999999959341E-01     0.0000000000000000E+00 
    1.0000000000000000E+00     2.1874999999950220E-01     0.0000000000000000E+00 
    1.0000000000000000E+00     2.4999999999941089E-01     0.0000000000000000E+00 
    1.0000000000000000E+00     2.8124999999931971E-01     0.0000000000000000E+00 
    1.0000000000000000E+00     3.1249999999922851E-01     0.0000000000000000E+00 
    1.0000000000000000E+00     3.4374999999913730E-01     0.0000000000000000E+00 
    1.0000000000000000E+00     3.7499999999904610E-01     0.0000000000000000E+00 
    1.0000000000000000E+00     4.0624999999895478E-01     0.0000000000000000E+00 
    1.0000000000000000E+00     4.3749999999886358E-01     0.0000000000000000E+00 
    1.0000000000000000E+00     4.6874999999877792E-01     0.0000000000000000E+00 
    1.0000000000000000E+00     4.9999999999869210E-01     0.0000000000000000E+00 
    1.0000000000000000E+00     5.3124999999876910E-01     0.0000000000000000E+00 
    1.0000000000000000E+00     5.6249999999884603E-01     0.0000000000000000E+00 
    1.0000000000000000E+00     5.9374999999892841E-01     0.0000000000000000E+00 
    1.0000000000000000E+00     6.2499999999901090E-01     0.0000000000000000E+00 
    1.0000000000000000E+00     6.5624999999909328E-01     0.0000000000000000E+00 
    1.0000000000000000E+00     6.8749999999917577E-01     0.0000000000000000E+00 
    1.0000000000000000E+00     7.1874999999925815E-01     0.0000000000000000E+00 
    1.0000000000000000E+00     7.4999999999934064E-01     0.0000000000000000E+00 
    1.0000000000000000E+00     7.8124999999942302E-01     0.0000000000000000E+00 
    1.0000000000000000E+00     8.1249999999950551E-01     0.0000000000000000E+00 
    1.0000000000000000E+00     8.4374999999958789E-01     0.0000000000000000E+00 
    1.0000000000000000E+00     8.7499999999967026E-01     0.0000000000000000E+00 
    1.0000000000000000E+00     9.0624999999975264E-01     0.0000000000000000E+00 
    1.0000000000000000E+00     9.3749999999983513E-01     0.0000000000000000E+00 
    1.0000000000000000E+00     9.6874999999991751E-01     0.0000000000000000E+00 
    9.6874999999986700E-01     1.0000000000000000E+00     0.0000000000000000E+00 
    9.3749999999973976E-01     1.0000000000000000E+00     0.0000000000000000E+00 
    9.0624999999967670E-01     1.0000000000000000E+00     0.0000000000000000E+00 
    8.7499999999950118E-01     1.0000000000000000E+00     0.0000000000000000E+00 
    8.4374999999971556E-01     1.0000000000000000E+00     0.0000000000000000E+00 
    8.1249999999991318E-01     1.0000000000000000E+00     0.0000000000000000E+00 
    7.8125000000010270E-01     1.0000000000000000E+00     0.0000000000000000E+00 
    7.5000000000034706E-01     1.0000000000000000E+00     0.0000000000000000E+00 
    7.1875000000056688E-01     1.0000000000000000E+00     0.0000000000000000E+00 
    6.8750000000078049E-01     1.0000000000000000E+00     0.0000000000000000E+00 
    6.5625000000097422E-01     1.0000000000000000E+00     0.0000000000000000E+00 
    6.2500000000121403E-01     1.0000000000000000E+00     0.0000000000000000E+00 
    5.9375000000151579E-01     1.0000000000000000E+00     0.0000000000000000E+00 
    5.6250000000164757E-01     1.0000000000000000E+00     0.0000000000000000E+00 
    5.3125000000182365E-01     1.0000000000000000E+00     0.0000000000000000E+00 
    5.0000000000205946E-01     1.0000000000000000E+00     0.0000000000000000E+00 
    4.6875000000194023E-01     1.0000000000000000E+00     0.0000000000000000E+00 
    4.3750000000182099E-01     1.0000000000000000E+00     0.0000000000000000E+00 
    4.0625000000169093E-01     1.0000000000000000E+00     0.0000000000000000E+00 
    3.7500000000156092E-01     1.0000000000000000E+00     0.0000000000000000E+00 
    3.4375000000143069E-01     1.0000000000000000E+00     0.0000000000000000E+00 
    3.1250000000130068E-01     1.0000000000000000E+00     0.0000000000000000E+00 
    2.8125000000117062E-01     1.0000000000000000E+00     0.0000000000000000E+00 
    2.5000000000104050E-01     1.0000000000000000E+00     0.0000000000000000E+00 
    2.1875000000091041E-01     1.0000000000000000E+00     0.0000000000000000E+00 
    1.8750000000078040E-01     1.0000000000000000E+00     0.0000000000000000E+00 
    1.5625000000065031E-01     1.0000000000000000E+00     0.0000000000000000E+00 
    1.2500000000052031E-01     1.0000000000000000E+00     0.0000000000000000E+00 
    9.3750000000390132E-02     1.0000000000000000E+00     0.0000000000000000E+00 
    6.2500000000260125E-02     1.0000000000000000E+00     0.0000000000000000E+00 
    3.1250000000130007E-02     1.0000000000000000E+00     0.0000000000000000E+00 
    0.0000000000000000E+00     9.6874999999986700E-01     0.0000000000000000E+00 
    0.0000000000000000E+00     9.3749999999973976E-01     0.0000000000000000E+00 
    0.0000000000000000E+00     9.0624999999967670E-01     0.0000000000000000E+00 
    0.0000000000000000E+00     8.7499999999950118E-01     0.0000000000000000E+00 
    0.0000000000000000E+00     8.4374999999971556E-01     0.0000000000000000E+00 
    0.0000000000000000E+00     8.1249999999991318E-01     0.0000000000000000E+00 
    0.0000000000000000E+00     7.8125000000010270E-01     0.0000000000000000E+00 
    0.0000000000000000E+00     7.5000000000034706E-01     0.0000000000000000E+00 
    0.0000000000000000E+00     7.1875000000056688E-01     0.0000000000000000E+00 
    0.0000000000000000E+00     6.8750000000078049E-01     0.0000000000000000E+00 
    0.0000000000000000E+00     6.5625000000097422E-01     0.0000000000000000E+00 
    0.0000000000000000E+00     6.2500000000121403E-01     0.0000000000000000E+00 
    0.0000000000000000E+00     5.9375000000151579E-01     0.0000000000000000E+00 
    0.0000000000000000E+00     5.6250000000164757E-01     0.0000000000000000E+00 
    0.0000000000000000E+00     5.3125000000182365E-01     0.0000000000000000E+00 
    0.0000000000000000E+00     5.0000000000205946E-01     0.0000000000000000E+00 
    0.0000000000000000E+00     4.6875000000194023E-01     0.0000000000000000E+00 
    0.0000000000000000E+00     4.3750000000182099E-01     0.0000000000000000E+00 
    0.0000000000000000E+00     4.0625000000169093E-01     0.0000000000000000E+00 
    0.0000000000000000E+00     3.7500000000156092E-01     0.0000000000000000E+00 
    0.0000000000000000E+00     3.4375000000143069E-01     0.0000000000000000E+00 
    0.0000000000000000E+00     3.1250000000130068E-01     0.0000000000000000E+00 
    0.0000000000000000E+00     2.8125000000117062E-01     0.0000000000000000E+00 
[...]
CELL_DATA 1024 
SCALARS Pressure float 1 
LOOKUP_TABLE default 

    3.0750448395494701E-01 
    3.0782329673233771E-01 
    3.1189919276597933E-01 
    3.1346624258895683E-01 
    3.1788808059512358E-01 
    3.1565486006854016E-01 
    3.1884623702924225E-01 
    3.2131825773468559E-01 
    3.2401950229154058E-01 
    3.2147119772586819E-01 
    3.2357435103323534E-01 
    3.2613328454542923E-01 
    3.2774404880603991E-01 
    3.2520135131367639E-01 
    3.2639046950844997E-01 
    3.2890698313766620E-01 
    3.2966122353463795E-01 
    3.2717288645940867E-01 
    3.2757454379967710E-01 
    3.3003669916202144E-01 
    3.3005796632865825E-01 
    3.2761788874216125E-01 
    3.2732323781712275E-01 
    3.2974651153429874E-01 
    3.2912222832267723E-01 
    3.2670980302206376E-01 
    3.2579647132480782E-01 
    3.2820442623713281E-01 
    3.2701256489992564E-01 
    3.2460241508919380E-01 
    3.2314758997422338E-01 
    3.2556682266677622E-01 
    3.2388856489155693E-01 
    3.2145315980754607E-01 
    3.1954187591709182E-01 
    3.2200075210218759E-01 
    3.1992831404080685E-01 
    3.1743843037455766E-01 
    3.1516979734585920E-01 
    3.1769850674863764E-01 
    3.1534126394667894E-01 
    3.1276557332562660E-01 
    3.1025832482141452E-01 
    3.1288954897286503E-01 
    3.1037970751864746E-01 
    3.0768395067155396E-01 
    3.0508206566049356E-01 
    3.0785181126842426E-01 
    3.0534996200214337E-01 
    3.0249641367572006E-01 
    2.9997532747951838E-01 
    3.0292248035565000E-01 
    3.0062179778384690E-01 
    2.9757228760495719E-01 
    2.9534676418496481E-01 
    2.9850361128957403E-01 
    2.9662418850994299E-01 
    2.9336600374321120E-01 
    2.9171017378603231E-01 
    2.9503284686939013E-01 
    2.9375067152833345E-01 
    2.9048977031942325E-01 
    2.8990690853162038E-01 
    2.9267984806170672E-01 
    3.0725847027109088E-01 
    3.0635036322858883E-01 
    3.0949730093984995E-01 
    3.1067320642050616E-01 
    3.1394578471577150E-01 
    3.1247941787858458E-01 
    3.1517221520205774E-01 
    3.1686102164349667E-01 
    3.1934142185615272E-01 
    3.1750271186821050E-01 
    3.1943897022592815E-01 
    3.2137357706246567E-01 
    3.2296865020440757E-01 
    3.2097319775963923E-01 
    3.2211000491424546E-01 
    3.2414551196826019E-01 
    3.2492440626171010E-01 
    3.2285986871365602E-01 
    3.2323589795886248E-01 
    3.2532495312757614E-01 
    3.2536581334002579E-01 
    3.2325239570516617E-01 
    3.2292433048661678E-01 
    3.2506493673364356E-01 
    3.2443998017585962E-01 
    3.2226724642947113E-01 
    3.2129737728035968E-01 
    3.2350874597334389E-01 
    3.2228959417796471E-01 
    3.2003185100599951E-01 
    3.1848893232507142E-01 
    3.2080182058728396E-01 
    3.1906600541910901E-01 
    3.1668828018647638E-01 
    3.1465121163281473E-01 
    3.1710434134492377E-01 
    3.1494094996482480E-01 
    3.1240097051173371E-01 
    3.0996300330270204E-01 
    3.1260219541915379E-01 
    3.1011700367273443E-01 
    3.0736524688765898E-01 
    3.0463843593778794E-01 
    3.0751719680119299E-01 
    3.0483785425745352E-01 
    3.0181644207283431E-01 
    2.9893666514770834E-01 
    3.0211771952307559E-01 
    2.9939968541600481E-01 
    2.9604051286005184E-01 
    2.9317403571944151E-01 
    2.9673142572448979E-01 
    2.9416632252990516E-01 
    2.9038884410636362E-01 
    2.8774354530980401E-01 
    2.9176503563377137E-01 
    2.8959853706335459E-01 
    2.8530612528311922E-01 
    2.8315792971391468E-01 
    2.8775455603316685E-01 
    2.8635179406755207E-01 
    2.8139981633965511E-01 
    2.8015898228380676E-01 
    2.8556995364671595E-01 
    3.0528430247027422E-01 
    3.0411446072292542E-01 
    3.0706218936033114E-01 
    3.0830357625737953E-01 
    3.1111204941754322E-01 
    3.0976129174938122E-01 
    3.1217424208165839E-01 
    3.1364233761808225E-01 
    3.1584188480667824E-01 
    3.1426584091656384E-01 
    3.1601030781069001E-01 
    3.1767900426704543E-01 
    3.1913892684232259E-01 
    3.1739216981728252E-01 
    3.1840450394985020E-01 
    3.2021823036306529E-01 
    3.2092046560973292E-01 
    3.1904668186320884E-01 
    3.1932248404310704E-01 
    3.2125333558410762E-01 
    3.2122707000102813E-01 
    3.1923877446923887E-01 
    3.1880466670992119E-01 
    3.2085357685310567E-01 
    3.2014606046797783E-01 
    3.1803105175307866E-01 
    3.1693037094796161E-01 
    3.1911890796884490E-01 
    3.1778772671818950E-01 
    3.1551654800817103E-01 
    3.1380502214682499E-01 
    3.1616946608163782E-01 
    3.1428258684441585E-01 
    3.1181284532728004E-01 
    3.0955882081238717E-01 
    3.1214725892709155E-01 
    3.0978557793425410E-01 
    3.0706366950507524E-01 
    3.0435021658915062E-01 
    3.0722179706082420E-01 
    3.0448257494636116E-01 
    3.0144359524166486E-01 
    2.9837146733347764E-01 
    3.0159724359807355E-01 
    2.9859810484916627E-01 
    2.9516426412029917E-01 
    2.9185545318520206E-01 
    2.9552077014443900E-01 
    2.9240456862052117E-01 
    2.8848184148429062E-01 
    2.8508392718258280E-01 
    2.8929306453875386E-01 
    2.8623474827376311E-01 
    2.8170631075629438E-01 
    2.7839815624027314E-01 
    2.8328398995806009E-01 
    2.8050234131282770E-01 
    2.7521362548460260E-01 
    2.7221202302674258E-01 
    2.7796013186653012E-01 
    2.7573771846394501E-01 
    2.6945696001639680E-01 
    2.6701302433261959E-01 
    2.7392395659376301E-01 
    3.0284130861203951E-01 
    3.0144113494416747E-01 
    3.0430991564312609E-01 
    3.0574297298558589E-01 
    3.0836810401860137E-01 
    3.0688140220035104E-01 
    3.0914071925815634E-01 
    3.1069420167312067E-01 
    3.1269768394068270E-01 
    3.1107144190447356E-01 
    3.1265868229854965E-01 
    3.1435889288895102E-01 
    3.1566406892215193E-01 
    3.1389087417880490E-01 
    3.1476037733446005E-01 
    3.1660535016444569E-01 
    3.1717990920260497E-01 
    3.1526335235734060E-01 
    3.1539931374083169E-01 
    3.1738891821387955E-01 
    3.1723665698230175E-01 
    3.1517062095817566E-01 
    3.1458203628080400E-01 
    3.1672985614502991E-01 
    3.1587726600885885E-01 
    3.1364039457592979E-01 
    3.1235438696801399E-01 
    3.1468940709451942E-01 
    3.1317845533889282E-01 
    3.1073444242347564E-01 
    3.0879268659043274E-01 
    3.1135822264362600E-01 
    3.0924420344151266E-01 
    3.0654295879884041E-01 
    3.0400087118736940E-01 
    3.0685366644787732E-01 
    3.0420577751874300E-01 
    3.0118389751358010E-01 
    2.9811148194427317E-01 
    3.0132174415217783E-01 
    2.9822497557906019E-01 
    2.9480516017275321E-01 
    2.9128868637686028E-01 
    2.9494125463763182E-01 
    2.9149891913206544E-01 
    2.8758815972412449E-01 
    2.8373214299445965E-01 
    2.8792905096628468E-01 
    2.8426567026093152E-01 
    2.7975176251419748E-01 
    2.7568077125852641E-01 
    2.8054592690860386E-01 
    2.7681026889800181E-01 
    2.7155554247356251E-01 
    2.6741493446089815E-01 
    2.7310253565383108E-01 
    2.6946985799996570E-01 
    2.6329992174491323E-01 
    2.5925281971569386E-01 
    2.6596211757508009E-01 
    2.6263050485565248E-01 
    2.5531585089143760E-01 
    2.5152877108947425E-01 
    2.5952445762926357E-01 
    2.9987843284817989E-01 
    2.9811157167158603E-01 
    3.0093539463473579E-01 
    3.0272211459082754E-01 
    3.0525241675837517E-01 
    3.0343280796578753E-01 
    3.0559498595225759E-01 
    3.0745842129429546E-01 
    3.0932796716842414E-01 
    3.0741225962971513E-01 
    3.0887519815260694E-01 
    3.1084947701436028E-01 
    3.1201328460860900E-01 
    3.0997553005797518E-01 
    3.1070675155158795E-01 
    3.1281233177622075E-01 
    3.1324236577662085E-01 
    3.1106442700721892E-01 
    3.1104626280646119E-01 
    3.1330183723192528E-01 
    3.1299166714996274E-01 
    3.1065204893800091E-01 
    3.0988354451176675E-01 
    3.1231499246540628E-01 
    3.1127694800214523E-01 
    3.0874435780625431E-01 
    3.0723984851200564E-01 
    3.0988450760178282E-01 
    3.0814638755179369E-01 
    3.0537706406491555E-01 
    3.0316471198812023E-01 
    3.0607300567222334E-01 
    3.0367648607296455E-01 
    3.0061316483395589E-01 
    2.9773449170520633E-01 
    3.0097069896483009E-01 
    2.9797132569897317E-01 
    2.9454250926486170E-01 
    2.9105284470531673E-01 
    2.9469594016910328E-01 
    2.9116409843179514E-01 
    2.8728300280543928E-01 
    2.8325242858380634E-01 
    2.8739742855381983E-01 
    2.8341971199903299E-01 
    2.7898255585028864E-01 
    2.7449682983562390E-01 
    2.7925694591903871E-01 
    2.7493737180564748E-01 
    2.6982068860602110E-01 
    2.6498148263868021E-01 
    2.7049144901431654E-01 
    2.6595174006979250E-01 
    2.6000830423907106E-01 
    2.5493168842634129E-01 
    2.6135265669908597E-01 
    2.5672999055576157E-01 
    2.4978313600654331E-01 
    2.4459440278979805E-01 
    2.5212012453692351E-01 
    2.4755880544901313E-01 
    2.3939650775060273E-01 
    2.3421845725661294E-01 
    2.4307939568133652E-01 
    2.9609559013711084E-01 
    2.9378364890399594E-01 
    2.9657906849745386E-01 
    2.9890353580812168E-01 
    3.0137412950877190E-01 
    2.9902773452389342E-01 
    3.0112247385777102E-01 
    3.0349964839877436E-01 
    3.0527184140116742E-01 
    3.0285579281521952E-01 
    3.0422029146959784E-01 
    3.0668258504330603E-01 
    3.0772451066748951E-01 
    3.0520909420157510E-01 
    3.0581621822836264E-01 
    3.0839148622149293E-01 
    3.0867892015860698E-01 
    3.0603684385840096E-01 
    3.0586748525620228E-01 
    3.0858391052131812E-01 
    3.0810528569613027E-01 
    3.0530608114489083E-01 
    3.0435203183393028E-01 
    3.0724358380431066E-01 
    3.0600100804750735E-01 
    3.0300620741527751E-01 
    3.0127094637071444E-01 
    3.0438138279387178E-01 
    3.0239012443249719E-01 
    2.9915005741566753E-01 
    2.9664883168644796E-01 
    3.0003423296480880E-01 
    2.9732230495211337E-01 
    2.9377406790302024E-01 
    2.9053410985135858E-01 
    2.9426456509148852E-01 
    2.9087291165109547E-01 
    2.8693889314933751E-01 
    2.8299999646087787E-01 
    2.8716096965895566E-01 
    2.8314414466639515E-01 
    2.7873069081966501E-01 
    2.7414597929539919E-01 
    2.7883966877671085E-01 
    2.7426662919095096E-01 
    2.6926261772405896E-01 
    2.6409910553025745E-01 
    2.6944596756053302E-01 
    2.6440043575256561E-01 
    2.5867563376451352E-01 
    2.5301397544945853E-01 
    2.5915449010147834E-01 
    2.5373410191899359E-01 
    2.4713730148665178E-01 
    2.4106990444902465E-01 
    2.4816645760746256E-01 
    2.4247951897313216E-01 
    2.3483681399510539E-01 
    2.2846329374651639E-01 
    2.3670141707724737E-01 
    2.3085966775730621E-01 
    2.2197422348016813E-01 
    2.1539339532104487E-01 
    2.2498023229296840E-01 
    2.9112781108051561E-01 
    2.8807946375247639E-01 
    2.9085886914666459E-01 
    2.9391375564349581E-01 
    2.9634479925199286E-01 
    2.9327635524158541E-01 
    2.9532498359922749E-01 
    2.9841399024358201E-01 
    3.0011417421622660E-01 
    2.9699766362111968E-01 
    2.9828734899345166E-01 
    3.0143827027771219E-01 
    3.0237957442131286E-01 
    2.9918725999238471E-01 
    2.9969110065647703E-01 
    3.0293204035594701E-01 
    3.0309050801812126E-01 
    2.9979324895313203E-01 
    2.9948890974769732E-01 
    3.0285087057494697E-01 
    3.0221018574155228E-01 
    2.9877423043393880E-01 
    2.9764638558101147E-01 
    3.0116674497090851E-01 
    2.9972011598609960E-01 
    2.9610363986434046E-01 
    2.9414539874770229E-01 
    2.9787117242082584E-01 
    2.9562212099676960E-01 
    2.9177225494477399E-01 
    2.8898603648295917E-01 
    2.9297653297464121E-01 
    2.8993938323244972E-01 
    2.8578985978566507E-01 
    2.8218818886969105E-01 
    2.8651709747146220E-01 
    2.8271760570637916E-01 
    2.7818689962029891E-01 
    2.7379334615192769E-01 
    2.7855039823581379E-01 
    2.7402657856964868E-01 
    2.6901642444657708E-01 
    2.6386662675676253E-01 
    2.6915890619709287E-01 
    2.6396182054997552E-01 
    2.5835607868310717E-01 
    2.5249854947356082E-01 
    2.5845143605247362E-01 
    2.5264549683556331E-01 
    2.4630942511063883E-01 
    2.3980563341793340E-01 
    2.4656327872997552E-01 
    2.4022542589819199E-01 
    2.3300551108938367E-01 
    2.2592860467891665E-01 
    2.3365371052889899E-01 
    2.2687070731804695E-01 
    2.1859540169674743E-01 
    2.1102699451200377E-01 
    2.1989938122606906E-01 
    2.1276259849626009E-01 
    2.0324468895826989E-01 
    1.9526958087568688E-01 
    2.0548258763703237E-01 
    2.8458953765029621E-01 
    2.8060860707417346E-01 
    2.8338378955594973E-01 
    2.8736533443849982E-01 
    2.8977329924893813E-01 
    2.8578637571611232E-01 
    2.8780906356042951E-01 
    2.9180636460221421E-01 
    2.9345731292975835E-01 
    2.8944436825549363E-01 
    2.9068474610839717E-01 
    2.9471892670749100E-01 
    2.9558415952635214E-01 
    2.9152273383488536E-01 
    2.9195109031813898E-01 
    2.9604630856701880E-01 
    2.9609917318690437E-01 
    2.9196293037531013E-01 
    2.9155184408854429E-01 
    2.9573719096944645E-01 
    2.9495554911759353E-01 
    2.9071199957453864E-01 
    2.8943823063701274E-01 
    2.9375027398230974E-01 
    2.9211830433846242E-01 
    2.8772611310145874E-01 
    2.8557203474308468E-01 
    2.9005755497397451E-01 
    2.8756697675611981E-01 
    2.8297326380392096E-01 
    2.7992802044361542E-01 
    2.8464661810684833E-01 
    2.8129769116173814E-01 
    2.7643555433712036E-01 
    2.7249623019955532E-01 
    2.7752264405688315E-01 
    2.7332523891003885E-01 
    2.6811162138326627E-01 
    2.6328460989768854E-01 
    2.6871063318128241E-01 
    2.6368546022807338E-01 
    2.5801948927244717E-01 
    2.5232206466176466E-01 
    2.5825790303642371E-01 
    2.5243775338942803E-01 
    2.4619974257807464E-01 
    2.3966160084645857E-01 
    2.4623644727885668E-01 
    2.3966706641824692E-01 
    2.3271842810968699E-01 
    2.2538272191849362E-01 
    2.3274429560739562E-01 
    2.2548432681383510E-01 
    2.1766863560049482E-01 
    2.0959186713387473E-01 
    2.1790470354921412E-01 
    2.1002410367930796E-01 
    2.0116948832416648E-01 
    1.9241971939239402E-01 
    2.0186206520464545E-01 
    1.9343866735155135E-01 
    1.8336166171179166E-01 
    1.7401500838699543E-01 
    1.8477418752492031E-01 
    2.7608691608087621E-01 
    2.7097435657561464E-01 
    2.7375776428313325E-01 
    2.7886458814471293E-01 
    2.8126613521940885E-01 
    2.7616287356787317E-01 
    2.7818166533903937E-01 
    2.8328393519376788E-01 
    2.8491012507788865E-01 
    2.7980580283198891E-01 
    2.8102674013309215E-01 
    2.8613671210463193E-01 
    2.8695569439647883E-01 
    2.8183583405717511E-01 
    2.8222445209734454E-01 
    2.8735918212015388E-01 
    2.8733951199582869E-01 
    2.8218407172816334E-01 
    2.8170636906627239E-01 
    2.8688935094760765E-01 
    2.8600178774393165E-01 
    2.8078329732329316E-01 
    2.7940715738449284E-01 
    2.8467041407246457E-01 
    2.8288939831374255E-01 
    2.7757066413700504E-01 
    2.7526701288371580E-01 
    2.8065355626301247E-01 
    2.7795842329661680E-01 
    2.7248995039639801E-01 
    2.6923385497510577E-01 
    2.7480033214269534E-01 
    2.7117649964023333E-01 
    2.6549382935653898E-01 
    2.6126580947536199E-01 
    2.6708512475388696E-01 
    2.6252549869940506E-01 
    2.5654669090497739E-01 
    2.5133447322401808E-01 
    2.5749812632976926E-01 
    2.5200485592665167E-01 
    2.4562842049106862E-01 
    2.3942923340505506E-01 
    2.4604901225353587E-01 
    2.3963552524986803E-01 
    2.3273922560862548E-01 
    2.2556249314872487E-01 
    2.3277104430352263E-01 
    2.2546402602981050E-01 
    2.1790506279204400E-01 
    2.0977500247924846E-01 
    2.1772478249326266E-01 
    2.0956547754410365E-01 
    2.0118247677798917E-01 
    1.9213973296772624E-01 
    2.0100006207050344E-01 
    1.9204414481103596E-01 
    1.8266101023712825E-01 
    1.7276237524723273E-01 
    1.8271480352748379E-01 
    1.7303035039594633E-01 
    1.6246150011972504E-01 
    1.5177740994785471E-01 
    1.6301007310648361E-01 
    2.6522041279999581E-01 
    2.5877407924539531E-01 
    2.6157939086475074E-01 
    2.6801296994617696E-01 
    2.7042655577795333E-01 
    2.6400672804122288E-01 
    2.6604703555102610E-01 
    2.7245267696889125E-01 
    2.7408243156357748E-01 
    2.6769074817007726E-01 
    2.6892792654347597E-01 
    2.7530662500941361E-01 
    2.7611588164253564E-01 
    2.6974837667123430E-01 
    2.7014174667025936E-01 
    2.7650074498825311E-01 
    2.7645176428523116E-01 
    2.7009760100638031E-01 
    2.6960547623198022E-01 
    2.7595956776621888E-01 
    2.7501492534122179E-01 
    2.6865492400193386E-01 
    2.6723554762007984E-01 
    2.7360880461862824E-01 
    2.7173242490450256E-01 
    2.6533703827192157E-01 
    2.6294921684432876E-01 
    2.6937731413638261E-01 
    2.6653537376623726E-01 
    2.6006208701695682E-01 
    2.5666590518210286E-01 
    2.6319895647503100E-01 
    2.5936096128804520E-01 
    2.5275127266450897E-01 
    2.4830925555615452E-01 
    2.5501495011959474E-01 
    2.5015528890686378E-01 
    2.4333153707403057E-01 
    2.3781060643901092E-01 
    2.4477731514226728E-01 
    2.3887753159132699E-01 
    2.3173998653125732E-01 
    2.2511449961026603E-01 
    2.3245382309541279E-01 
    2.2550568948017474E-01 
    2.1793056580470999E-01 
    2.1018652263236159E-01 
    2.1803448278011109E-01 
    2.1004363165714829E-01 
    2.0188294566027096E-01 
    1.9302294149973195E-01 
    2.0153883098381983E-01 
    1.9252817168750763E-01 
    1.8361237679630765E-01 
    1.7366000429946446E-01 
    1.8302218727037997E-01 
    1.7303380106794253E-01 
    1.6317745402263198E-01 
    1.5217907764756064E-01 
    1.6257817319331122E-01 
    1.5167246623480632E-01 
    1.4068166712024255E-01 
    1.2870410494536938E-01 
    1.4033556801882158E-01 
    2.5158375316795678E-01 
    2.4359709661199741E-01 
    2.4643964364018470E-01 
    2.5440564248377656E-01 
    2.5685241967356498E-01 
    2.4891203609529966E-01 
    2.5100371115183751E-01 
    2.5891435547953229E-01 
    2.6058110332492501E-01 
    2.5270338373242540E-01 
    2.5399928252827836E-01 
    2.6184187236814349E-01 
    2.6268556423167505E-01 
    2.5487931386633861E-01 
    2.5533115466413370E-01 
    2.6310086852443515E-01 
    2.6307632242950119E-01 
    2.5534229017914245E-01 
    2.5490001564954956E-01 
    2.6260034399190235E-01 
    2.6166124943871655E-01 
    2.5399141879540993E-01 
    2.5260335639483755E-01 
    2.6024726388703789E-01 
    2.5834653343840031E-01 
    2.5072243477374645E-01 
    2.4833500177961290E-01 
    2.5594714556668463E-01 
    2.5303716409895000E-01 
    2.4542715672139731E-01 
    2.4198478466071677E-01 
    2.4960468495318885E-01 
    2.4563791901083648E-01 
    2.3799362207948835E-01 
    2.3343936206539592E-01 
    2.4112530887979003E-01 
    2.3605568659748924E-01 
    2.2830780846005119E-01 
    2.2258508952226583E-01 
    2.3041847919231942E-01 
    2.2420396799046272E-01 
    2.1625794199552711E-01 
    2.0931407515773176E-01 
    2.1740360498606986E-01 
    2.1001038470130645E-01 
    2.0174262020453662E-01 
    1.9353466152887697E-01 
    2.0201926194723410E-01 
    1.9342759426279235E-01 
    1.8468383135767957E-01 
    1.7518692673273975E-01 
    1.8423557299554041E-01 
    1.7444659130962265E-01 
    1.6504447922927512E-01 
    1.5426117920916380E-01 
    1.6406748609340735E-01 
    1.5310859229380183E-01 
    1.4284604152089486E-01 
    1.3081221994984832E-01 
    1.4158357254018544E-01 
    1.2950903736860678E-01 
    1.1817645517056753E-01 
    1.0495827589211484E-01 
    1.1690404231142697E-01 
    2.3476085398708543E-01 
    2.2502059609708683E-01 
    2.2791810580626359E-01 
    2.3762846048157160E-01 
    2.4013324348994322E-01 
    2.3046284691582231E-01 
    2.3264168606496674E-01 