# vtk DataFile Version 2.0
Pressure Field Data 
ASCII 
DATASET UNSTRUCTURED_GRID 

POINTS 1089 float 

    0.0000000000000000E+00     0.0000000000000000E+00     0.0000000000000000E+00 
    1.0000000000000000E+00     0.0000000000000000E+00     0.0000000000000000E+00 
    1.0000000000000000E+00     1.0000000000000000E+00     0.0000000000000000E+00 
    0.0000000000000000E+00     1.0000000000000000E+00     0.0000000000000000E+00 
    3.1249999999941821E-02     0.0000000000000000E+00     0.0000000000000000E+00 
    6.2499999999872928E-02     0.0000000000000000E+00     0.0000000000000000E+00 
    9.3749999999823030E-02     0.0000000000000000E+00     0.0000000000000000E+00 
    1.2499999999977310E-01     0.0000000000000000E+00     0.0000000000000000E+00 
    1.5624999999968331E-01     0.0000000000000000E+00     0.0000000000000000E+00 
    1.8749999999959341E-01     0.0000000000000000E+00     0.0000000000000000E+00 
    2.1874999999950220E-01     0.0000000000000000E+00     0.0000000000000000E+00 
    2.4999999999941089E-01     0.0000000000000000E+00     0.0000000000000000E+00 
    2.8124999999931971E-01     0.0000000000000000E+00     0.0000000000000000E+00 
    3.1249999999922851E-01     0.0000000000000000E+00     0.0000000000000000E+00 
    3.4374999999913730E-01     0.0000000000000000E+00     0.0000000000000000E+00 
    3.7499999999904610E-01     0.0000000000000000E+00     0.0000000000000000E+00 
    4.0624999999895478E-01     0.0000000000000000E+00     0.0000000000000000E+00 
    4.3749999999886358E-01     0.0000000000000000E+00     0.0000000000000000E+00 
    4.6874999999877792E-01     0.0000000000000000E+00     0.0000000000000000E+00 
    4.9999999999869210E-01     0.0000000000000000E+00     0.0000000000000000E+00 
    5.3124999999876910E-01     0.0000000000000000E+00     0.0000000000000000E+00 
    5.6249999999884603E-01     0.0000000000000000E+00     0.0000000000000000E+00 
    5.9374999999892841E-01     0.0000000000000000E+00     0.0000000000000000E+00 
    6.2499999999901090E-01     0.0000000000000000E+00     0.0000000000000000E+00 
    6.5624999999909328E-01     0.0000000000000000E+00     0.0000000000000000E+00 
    6.8749999999917577E-01     0.0000000000000000E+00     0.0000000000000000E+00 
    7.1874999999925815E-01     0.0000000000000000E+00     0.0000000000000000E+00 
    7.4999999999934064E-01     0.0000000000000000E+00     0.0000000000000000E+00 
    7.8124999999942302E-01     0.0000000000000000E+00     0.0000000000000000E+00 
    8.1249999999950551E-01     0.0000000000000000E+00     0.0000000000000000E+00 
    8.4374999999958789E-01     0.0000000000000000E+00     0.0000000000000000E+00 
    8.7499999999967026E-01     0.0000000000000000E+00     0.0000000000000000E+00 
    9.0624999999975264E-01     0.0000000000000000E+00     0.0000000000000000E+00 
    9.3749999999983513E-01     0.0000000000000000E+00     0.0000000000000000E+00 
    9.6874999999991751E-01     0.0000000000000000E+00     0.0000000000000000E+00 
    1.0000000000000000E+00     3.1249999999941821E-02     0.0000000000000000E+00 
    1.0000000000000000E+00     6.2499999999872928E-02     0.0000000000000000E+00 
    1.0000000000000000E+00     9.3749999999823030E-02     0.0000000000000000E+00 
    1.0000000000000000E+00     1.2499999999977310E-01     0.0000000000000000E+00 
    1.0000000000000000E+00     1.5624999999968331E-01     0.0000000000000000E+00 
    1.0000000000000000E+00     1.8749999999959341E-01     0.0000000000000000E+00 
    1.0000000000000000E+00     2.1874999999950220E-01     0.0000000000000000E+00 
    1.0000000000000000E+00     2.4999999999941089E-01     0.0000000000000000E+00 
    1.0000000000000000E+00     2.8124999999931971E-01     0.0000000000000000E+00 
    1.0000000000000000E+00     3.1249999999922851E-01     0.0000000000000000E+00 
    1.0000000000000000E+00     3.4374999999913730E-01     0.0000000000000000E+00 
    1.0000000000000000E+00     3.7499999999904610E-01     0.0000000000000000E+00 
    1.0000000000000000E+00     4.0624999999895478E-01     0.0000000000000000E+00 
    1.0000000000000000E+00     4.3749999999886358E-01     0.0000000000000000E+00 
    1.0000000000000000E+00     4.6874999999877792E-01     0.0000000000000000E+00 
    1.0000000000000000E+00     4.9999999999869210E-01     0.0000000000000000E+00 
    1.0000000000000000E+00     5.3124999999876910E-01     0.0000000000000000E+00 
    1.0000000000000000E+00     5.6249999999884603E-01     0.0000000000000000E+00 
    1.0000000000000000E+00     5.9374999999892841E-01     0.0000000000000000E+00 
    1.0000000000000000E+00     6.2499999999901090E-01     0.0000000000000000E+00 
    1.0000000000000000E+00     6.5624999999909328E-01     0.0000000000000000E+00 
    1.0000000000000000E+00     6.8749999999917577E-01     0.0000000000000000E+00 
    1.0000000000000000E+00     7.1874999999925815E-01     0.0000000000000000E+00 
    1.0000000000000000E+00     7.4999999999934064E-01     0.0000000000000000E+00 
    1.0000000000000000E+00     7.8124999999942302E-01     0.0000000000000000E+00 
    1.0000000000000000E+00     8.1249999999950551E-01     0.0000000000000000E+00 
    1.0000000000000000E+00     8.4374999999958789E-01     0.0000000000000000E+00 
    1.0000000000000000E+00     8.7499999999967026E-01     0.0000000000000000E+00 
    1.0000000000000000E+00     9.0624999999975264E-01     0.0000000000000000E+00 
    1.0000000000000000E+00     9.3749999999983513E-01     0.0000000000000000E+00 
    1.0000000000000000E+00     9.6874999999991751E-01     0.0000000000000000E+00 
    9.6874999999986700E-01     1.0000000000000000E+00     0.0000000000000000E+00 
    9.3749999999973976E-01     1.0000000000000000E+00     0.0000000000000000E+00 
    9.0624999999967670E-01     1.0000000000000000E+00     0.0000000000000000E+00 
    8.7499999999950118E-01     1.0000000000000000E+00     0.0000000000000000E+00 
    8.4374999999971556E-01     1.0000000000000000E+00     0.0000000000000000E+00 
    8.1249999999991318E-01     1.0000000000000000E+00     0.0000000000000000E+00 
    7.8125000000010270E-01     1.0000000000000000E+00     0.0000000000000000E+00 
    7.5000000000034706E-01     1.0000000000000000E+00     0.0000000000000000E+00 
    7.1875000000056688E-01     1.0000000000000000E+00     0.0000000000000000E+00 
    6.8750000000078049E-01     1.0000000000000000E+00     0.0000000000000000E+00 
    6.5625000000097422E-01     1.0000000000000000E+00     0.0000000000000000E+00 
    6.2500000000121403E-01     1.0000000000000000E+00     0.0000000000000000E+00 
    5.9375000000151579E-01     1.0000000000000000E+00     0.0000000000000000E+00 
    5.6250000000164757E-01     1.0000000000000000E+00     0.0000000000000000E+00 
    5.3125000000182365E-01     1.0000000000000000E+00     0.0000000000000000E+00 
    5.0000000000205946E-01     1.0000000000000000E+00     0.0000000000000000E+00 
    4.6875000000194023E-01     1.0000000000000000E+00     0.0000000000000000E+00 
    4.3750000000182099E-01     1.0000000000000000E+00     0.0000000000000000E+00 
    4.0625000000169093E-01     1.0000000000000000E+00     0.0000000000000000E+00 
    3.7500000000156092E-01     1.0000000000000000E+00     0.0000000000000000E+00 
    3.4375000000143069E-01     1.0000000000000000E+00     0.0000000000000000E+00 
    3.1250000000130068E-01     1.0000000000000000E+00     0.0000000000000000E+00 
    2.8125000000117062E-01     1.0000000000000000E+00     0.0000000000000000E+00 
    2.5000000000104050E-01     1.0000000000000000E+00     0.0000000000000000E+00 
    2.1875000000091041E-01     1.0000000000000000E+00     0.0000000000000000E+00 
    1.8750000000078040E-01     1.0000000000000000E+00     0.0000000000000000E+00 
    1.5625000000065031E-01     1.0000000000000000E+00     0.0000000000000000E+00 
    1.2500000000052031E-01     1.0000000000000000E+00     0.0000000000000000E+00 
    9.3750000000390132E-02     1.0000000000000000E+00     0.0000000000000000E+00 
    6.2500000000260125E-02     1.0000000000000000E+00     0.0000000000000000E+00 
    3.1250000000130007E-02     1.0000000000000000E+00     0.0000000000000000E+00 
    0.0000000000000000E+00     9.6874999999986700E-01     0.0000000000000000E+00 
    0.0000000000000000E+00     9.3749999999973976E-01     0.0000000000000000E+00 
    0.0000000000000000E+00     9.0624999999967670E-01     0.0000000000000000E+00 
    0.0000000000000000E+00     8.7499999999950118E-01     0.0000000000000000E+00 
    0.0000000000000000E+00     8.4374999999971556E-01     0.0000000000000000E+00 
    0.0000000000000000E+00     8.1249999999991318E-01     0.0000000000000000E+00 
    0.0000000000000000E+00     7.8125000000010270E-01     0.0000000000000000E+00 
    0.0000000000000000E+00     7.5000000000034706E-01     0.0000000000000000E+00 
    0.0000000000000000E+00     7.1875000000056688E-01     0.0000000000000000E+00 
    0.0000000000000000E+00     6.8750000000078049E-01     0.0000000000000000E+00 
    0.0000000000000000E+00     6.5625000000097422E-01     0.0000000000000000E+00 
    0.0000000000000000E+00     6.2500000000121403E-01     0.0000000000000000E+00 
    0.0000000000000000E+00     5.9375000000151579E-01     0.0000000000000000E+00 
    0.0000000000000000E+00     5.6250000000164757E-01     0.0000000000000000E+00 
    0.0000000000000000E+00     5.3125000000182365E-01     0.0000000000000000E+00 
    0.0000000000000000E+00     5.0000000000205946E-01     0.0000000000000000E+00 
    0.0000000000000000E+00     4.6875000000194023E-01     0.0000000000000000E+00 
    0.0000000000000000E+00     4.3750000000182099E-01     0.0000000000000000E+00 
    0.0000000000000000E+00     4.0625000000169093E-01     0.0000000000000000E+00 
    0.0000000000000000E+00     3.7500000000156092E-01     0.0000000000000000E+00 
    0.0000000000000000E+00     3.4375000000143069E-01     0.0000000000000000E+00 
    0.0000000000000000E+00     3.1250000000130068E-01     0.0000000000000000E+00 
    0.0000000000000000E+00     2.8125000000117062E-01     0.0000000000000000E+00 
[...]
CELL_DATA 1024 
SCALARS Pressure float 1 
LOOKUP_TABLE default 

    8.3140764393964162E-01 
    8.3297375625548042E-01 
    8.3527382082909463E-01 
    8.3336900234935885E-01 
    8.3505482592515679E-01 
    8.3716774984454179E-01 
    8.3873601984905199E-01 
    8.3647411726824328E-01 
    8.3764049782938554E-01 
    8.4001713881133178E-01 
    8.4103480944124209E-01 
    8.3856851003890087E-01 
    8.3927235039189796E-01 
    8.4180661926288436E-01 
    8.4234704298727403E-01 
    8.3976533694228539E-01 
    8.4005965799904481E-01 
    8.4266857819233054E-01 
    8.4278224385154543E-01 
    8.4016628256818116E-01 
    8.4009499131246479E-01 
    8.4269786716633277E-01 
    8.4242431234431625E-01 
    8.3985449971613946E-01 
    8.3945264694090627E-01 
    8.4196970535568572E-01 
    8.4134167106665991E-01 
    8.3889662743002003E-01 
    8.3819324882275836E-01 
    8.4054758615921876E-01 
    8.3959484710162424E-01 
    8.3734920603743246E-01 
    8.3637136868233519E-01 
    8.3849115460017676E-01 
    8.3724481725498123E-01 
    8.3526708351265799E-01 
    8.3404449770221278E-01 
    8.3586507996111437E-01 
    8.3436248493016452E-01 
    8.3271291152339955E-01 
    8.3128317110648131E-01 
    8.3274927554979505E-01 
    8.3103985561279359E-01 
    8.2976811321110366E-01 
    8.2818307375655376E-01 
    8.2925131904774452E-01 
    8.2740406809762745E-01 
    8.2654646807748866E-01 
    8.2488043800857580E-01 
    8.2552254295442018E-01 
    8.2363609565212548E-01 
    8.2321152457345270E-01 
    8.2157123015032563E-01 
    8.2178007415395060E-01 
    8.1999730025258466E-01 
    8.1999608921143796E-01 
    8.1852622399385155E-01 
    8.1834056086346096E-01 
    8.1687834838411844E-01 
    8.1719958608708854E-01 
    8.1603342905462339E-01 
    8.1571211191906867E-01 
    8.1503423728925928E-01 
    8.1493994810698356E-01 
    8.3503072942847367E-01 
    8.3737823839422543E-01 
    8.3983637763720176E-01 
    8.3744775557154161E-01 
    8.3946971403465132E-01 
    8.4192772248219172E-01 
    8.4367870501341646E-01 
    8.4114874259322225E-01 
    8.4252028637167298E-01 
    8.4511384164745573E-01 
    8.4625325765126391E-01 
    8.4360890517797793E-01 
    8.4443292709779971E-01 
    8.4711327449233309E-01 
    8.4770743382138980E-01 
    8.4500704191376363E-01 
    8.4534364170567511E-01 
    8.4804730914956727E-01 
    8.4814306329265987E-01 
    8.4545353173053872E-01 
    8.4534635099465183E-01 
    8.4800383362676290E-01 
    8.4763802378313791E-01 
    8.4503086985539333E-01 
    8.4451524258995603E-01 
    8.4705355232504276E-01 
    8.4625808857454010E-01 
    8.4380725077613339E-01 
    8.4291455178591412E-01 
    8.4525929075110551E-01 
    8.4406505569901036E-01 
    8.4184493978699904E-01 
    8.4060662345393822E-01 
    8.4268378507198227E-01 
    8.4112467322185536E-01 
    8.3920852455038009E-01 
    8.3766060291002520E-01 
    8.3939802105907857E-01 
    8.3751558266796300E-01 
    8.3597421502717928E-01 
    8.3416251590092882E-01 
    8.3549095252895988E-01 
    8.3334000457934732E-01 
    8.3224091662594313E-01 
    8.3022761517380683E-01 
    8.3108139844417206E-01 
    8.2873717618800669E-01 
    8.2814422398738308E-01 
    8.2601653515485107E-01 
    8.2633348657776151E-01 
    8.2390150089131997E-01 
    8.2387549258271342E-01 
    8.2175851562679614E-01 
    8.2147863450060199E-01 
    8.1911028509783057E-01 
    8.1971149336713389E-01 
    8.1779220069518010E-01 
    8.1685245859378308E-01 
    8.1477585089722437E-01 
    8.1607691066021892E-01 
    8.1467420364109600E-01 
    8.1297185508271774E-01 
    8.1155902616486653E-01 
    8.1375340609327096E-01 
    8.3988991249024270E-01 
    8.4247136211884877E-01 
    8.4494297855752709E-01 
    8.4236059595503243E-01 
    8.4448673469897007E-01 
    8.4708441887770647E-01 
    8.4889957779803737E-01 
    8.4627999654233665E-01 
    8.4775513775347000E-01 
    8.5039632121630471E-01 
    8.5158395323468150E-01 
    8.4892656060837179E-01 
    8.4980722679892984E-01 
    8.5247186860329471E-01 
    8.5306898907439654E-01 
    8.5040856752346750E-01 
    8.5074070634015930E-01 
    8.5338360915510392E-01 
    8.5342342849975472E-01 
    8.5081273406232794E-01 
    8.5063296275364031E-01 
    8.5319566174798567E-01 
    8.5270718168400050E-01 
    8.5020915370839756E-01 
    8.4954873092138661E-01 
    8.5196468070928899E-01 
    8.5097484713137062E-01 
    8.4865899290284252E-01 
    8.4754733154128170E-01 
    8.4974455780425029E-01 
    8.4828108829808180E-01 
    8.4622146480236926E-01 
    8.4468968646585507E-01 
    8.4659234327655797E-01 
    8.4468710791322876E-01 
    8.4296113837491427E-01 
    8.4104610693785520E-01 
    8.4257532403439284E-01 
    8.4026839101077677E-01 
    8.3895634998539070E-01 
    8.3670545920422124E-01 
    8.3777949761070303E-01 
    8.3512398613796224E-01 
    8.3430926627953039E-01 
    8.3178630362286343E-01 
    8.3231975548014581E-01 
    8.2938770917039339E-01 
    8.2915833566231489E-01 
    8.2645098409131867E-01 
    8.2635225632307074E-01 
    8.2324187289534545E-01 
    8.2369448324869243E-01 
    8.2092461803301908E-01 
    8.2008972538413283E-01 
    8.1693433463371568E-01 
    8.1818391365540244E-01 
    8.1552313318036007E-01 
    8.1382018820128987E-01 
    8.1079802892478936E-01 
    8.1300299648610208E-01 
    8.1069547206286208E-01 
    8.0792413854903755E-01 
    8.0525715767935369E-01 
    8.0868230611940028E-01 
    8.4504403802951600E-01 
    8.4753823860056288E-01 
    8.5000049133291755E-01 
    8.4751180657678338E-01 
    8.4965767438579987E-01 
    8.5214486433953907E-01 
    8.5396888036389484E-01 
    8.5148142935126903E-01 
    8.5298641163885702E-01 
    8.5547293423005777E-01 
    8.5665937692409777E-01 
    8.5417794010727977E-01 
    8.5506220626540075E-01 
    8.5753173035970842E-01 
    8.5809413143700064E-01 
    8.5564563081443812E-01 
    8.5593454694588855E-01 
    8.5835098961145473E-01 
    8.5830680740401755E-01 
    8.5593508501602966E-01 
    8.5565317133002439E-01 
    8.5796611336831197E-01 
    8.5733347173232832E-01 
    8.5509459422583578E-01 
    8.5426511221167700E-01 
    8.5641354563124228E-01 
    8.5521119839582938E-01 
    8.5317059151168473E-01 
    8.5181716864387658E-01 
    8.5373162890545429E-01 
    8.5198053028652754E-01 
    8.5021143620284523E-01 
    8.4836065061355592E-01 
    8.4996427693721233E-01 
    8.4769013135615245E-01 
    8.4627296193509594E-01 
    8.4395766593611665E-01 
    8.4516647303828474E-01 
    8.4240304646717101E-01 
    8.4142547867656015E-01 
    8.3868883381545090E-01 
    8.3941122619033215E-01 
    8.3620429589469669E-01 
    8.3576220304289373E-01 
    8.3266243880548518E-01 
    8.3279773657899669E-01 
    8.2920951619135019E-01 
    8.2940913799996763E-01 
    8.2602502134073874E-01 
    8.2546036783182641E-01 
    8.2157403484395930E-01 
    8.2253631694935414E-01 
    8.1897312082604234E-01 
    8.1757744506673846E-01 
    8.1350074918691628E-01 
    8.1536967450589726E-01 
    8.1176443361463579E-01 
    8.0937711339820972E-01 
    8.0524209021427606E-01 
    8.0819967717716268E-01 
    8.0472020333866057E-01 
    8.0113231815874342E-01 
    7.9708327040969573E-01 
    8.0137041365630102E-01 
    8.4988969925823188E-01 
    8.5203774238283847E-01 
    8.5448970416320835E-01 
    8.5234637305929850E-01 
    8.5448630591844421E-01 
    8.5662415457196217E-01 
    8.5843642843446200E-01 
    8.5630568617101244E-01 
    8.5780294624198361E-01 
    8.5992359444627076E-01 
    8.6108416427692835E-01 
    8.5897824424275915E-01 
    8.5983294127992993E-01 
    8.6191775764216660E-01 
    8.6242479390925986E-01 
    8.6036917652100031E-01 
    8.6058956275213061E-01 
    8.6260624942277808E-01 
    8.6246348432042252E-01 
    8.6049699767569376E-01 
    8.6009456771412129E-01 
    8.6199814432149358E-01 
    8.6121211691806676E-01 
    8.5938552371718302E-01 
    8.5837331127223682E-01 
    8.6010754329185857E-01 
    8.5868686898798063E-01 
    8.5706164392784911E-01 
    8.5545461158117331E-01 
    8.5695293186401156E-01 
    8.5490908080055261E-01 
    8.5355681852511545E-01 
    8.5137354761700512E-01 
    8.5255932154638836E-01 
    8.4990848617882153E-01 
    8.4891094746212281E-01 
    8.4617623979181633E-01 
    8.4696242257196430E-01 
    8.4372819965855550E-01 
    8.4317794380332745E-01 
    8.3992611337454226E-01 
    8.4021432316329336E-01 
    8.3643095479779295E-01 
    8.3643258164118839E-01 
    8.3271120514106711E-01 
    8.3239012547153035E-01 
    8.2810592967004015E-01 
    8.2877809632489730E-01 
    8.2465182771968693E-01 
    8.2359468337200292E-01 
    8.1887502143066671E-01 
    8.2035358305417883E-01 
    8.1590721769981867E-01 
    8.1396790164632560E-01 
    8.0889647219359762E-01 
    8.1133917252322008E-01 
    8.0667816057286668E-01 
    8.0368574807986759E-01 
    7.9836203581703491E-01 
    8.0195451864589662E-01 
    7.9719910244651571E-01 
    7.9295205477369413E-01 
    7.8748174742618504E-01 
    7.9244163998538641E-01 
    8.5392416978043451E-01 
    8.5549255356967735E-01 
    8.5793992200777347E-01 
    8.5637288743328677E-01 
    8.5850211250608954E-01 
    8.6006512478395414E-01 
    8.6186244001725620E-01 
    8.6030658231237267E-01 
    8.6178236595397784E-01 
    8.6332716348019789E-01 
    8.6445551738696458E-01 
    8.6292670345863842E-01 
    8.6373779336322987E-01 
    8.6524451843400374E-01 
    8.6569182659860278E-01 
    8.6421457726566264E-01 
    8.6435655293490099E-01 
    8.6579560596423755E-01 
    8.6555440925962157E-01 
    8.6416363161313192E-01 
    8.6363604450797105E-01 
    8.6496709626864832E-01 
    8.6403278861841926E-01 
    8.6277429678519746E-01 
    8.6157916532863610E-01 
    8.6275086117305100E-01 
    8.6112096861864407E-01 
    8.6005173560698955E-01 
    8.5819347349505903E-01 
    8.5914310523484549E-01 
    8.5681769557691057E-01 
    8.5600632831100820E-01 
    8.5349286366304411E-01 
    8.5414571356604285E-01 
    8.5112882709224003E-01 
    8.5065641267651637E-01 
    8.4750125377696284E-01 
    8.4776956456552910E-01 
    8.4407149883391741E-01 
    8.4403280238155143E-01 
    8.4025781256795207E-01 
    8.4003944247086226E-01 
    8.3567964658518790E-01 
    8.3618458099039328E-01 
    8.3182314291433435E-01 
    8.3099999299953342E-01 
    8.2601016688836859E-01 
    8.2718544714952491E-01 
    8.2228549277017149E-01 
    8.2072179383234956E-01 
    8.1514852193696052E-01 
    8.1713940582496802E-01 
    8.1176542891276282E-01 
    8.0930602661379325E-01 
    8.0321191372863709E-01 
    8.0618379139660068E-01 
    8.0041642487154152E-01 
    7.9688549760580629E-01 
    7.9034743633911064E-01 
    7.9448649129355942E-01 
    7.8841770619563556E-01 
    7.8361922120263994E-01 
    7.7672254257783524E-01 
    7.8223347491799178E-01 
    8.5668775016182386E-01 
    8.5745554461640816E-01 
    8.5990715854707256E-01 
    8.5913599366580384E-01 
    8.6125910481207191E-01 
    8.6203069749386285E-01 
    8.6381972264134022E-01 
    8.6305098118541923E-01 
    8.6450628629298421E-01 
    8.6526835980001449E-01 
    8.6637127137573133E-01 
    8.6562040085805692E-01 
    8.6638933605321022E-01 
    8.6712359727521571E-01 
    8.6752087707614300E-01 
    8.6680962818424789E-01 
    8.6687823281791521E-01 
    8.6755896657575526E-01 
    8.6723396007961384E-01 
    8.6659243197880031E-01 
    8.6594976360342990E-01 
    8.6654212734053682E-01 
    8.6547987157902706E-01 
    8.6494797863874906E-01 
    8.6358502851844388E-01 
    8.6404371294711690E-01 
    8.6223030021856595E-01 
    8.6185908402049427E-01 
    8.5976858545797785E-01 
    8.6003645232910042E-01 
    8.5745923049345940E-01 
    8.5731232345037223E-01 
    8.5448954892350726E-01 
    8.5449604082796193E-01 
    8.5114476656003746E-01 
    8.5130011030852282E-01 
    8.4774461502779630E-01 
    8.4740392788796215E-01 
    8.4327286627001596E-01 
    8.4382461118074370E-01 
    8.3954278381887271E-01 
    8.3875194830867228E-01 
    8.3384278242648457E-01 
    8.3490315830220507E-01 
    8.2991130097221788E-01 
    8.2854843923270305E-01 
    8.2287366395440709E-01 
    8.2457450483248995E-01 
    8.1890194526020388E-01 
    8.1682506675706890E-01 
    8.1041127454822981E-01 
    8.1290478828273660E-01 
    8.0659623215088116E-01 
    8.0364302645463104E-01 
    7.9653319528505873E-01 
    7.9999146262431164E-01 
    7.9310750469553382E-01 
    7.8909671978892981E-01 
    7.8135043827276529E-01 
    7.8596295988162612E-01 
    7.7857763015675285E-01 
    7.7331282373564481E-01 
    7.6500363388832582E-01 
    7.7097204763477389E-01 
    8.5774239139357389E-01 
    8.5749521007149443E-01 
    8.5996195917991547E-01 
    8.6020010463991092E-01 
    8.6232708299147498E-01 
    8.6209581212281972E-01 
    8.6388973137480929E-01 
    8.6411657898070060E-01 
    8.6556224601279919E-01 
    8.6533694747037770E-01 
    8.6643094373785645E-01 
    8.6665812022660171E-01 
    8.6739857572526591E-01 
    8.6716541705183048E-01 
    8.6753422045368112E-01 
    8.6777826168602834E-01 
    8.6779203106594804E-01 
    8.6753129524452099E-01 
    8.6715060079700779E-01 
    8.6743487038847222E-01 
    8.6670183898717068E-01 
    8.6638605009629566E-01 
    8.6523145824602665E-01 
    8.6558802460799544E-01 
    8.6408852079633869E-01 
    8.6368051017487990E-01 
    8.6172675276475641E-01 
    8.6219843019751374E-01 
    8.5991289681867356E-01 
    8.5936361569549280E-01 
    8.5658446447321213E-01 
    8.5722716938403665E-01 
    8.5413669706545459E-01 
    8.5338268832491437E-01 
    8.4975182480515754E-01 
    8.5063725797132150E-01 
    8.4672511971367026E-01 
    8.4568572195588432E-01 
    8.4117873756724149E-01 
    8.4239723004281752E-01 
    8.3765143386172669E-01 
    8.3622597339760052E-01 
    8.3082354004770087E-01 
    8.3248671086653458E-01 
    8.2690342562087615E-01 
    8.2496884552511884E-01 
    8.1866089744568171E-01 
    8.2090357915793877E-01 
    8.1449104842564812E-01 
    8.1190060548434340E-01 
    8.0469106745121188E-01 
    8.0767179739715567E-01 
    8.0045404196736125E-01 
    7.9703781974610111E-01 
    7.8894903161470753E-01 
    7.9284835049645430E-01 
    7.8486766376685735E-01 
    7.8043562335233652E-01 
    7.7151129205681612E-01 
    7.7652722283155251E-01 
    7.6784440103727702E-01 
    7.6219243505812950E-01 
    7.5249797043015365E-01 
    7.5883844697483649E-01 
    8.5666122811332124E-01 
    8.5518785668963093E-01 
    8.5768222622932244E-01 
    8.5914013822345736E-01 
    8.6128467100725603E-01 
    8.5984157103971881E-01 
    8.6165831524497882E-01 
    8.6308751357449209E-01 
    8.6454151460015805E-01 
    8.6312496223399326E-01 
    8.6423407674745056E-01 
    8.6563966828912853E-01 
    8.6637507472076902E-01 
    8.6497824100069765E-01 
    8.6534998787566542E-01 
    8.6674088070518651E-01 
    8.6673020760615338E-01 
    8.6534171739112586E-01 
    8.6494560450428049E-01 
    8.6633607386010147E-01 
    8.6555132024158377E-01 
    8.6415350692848047E-01 
    8.6295688144494975E-01 
    8.6436854557726106E-01 
    8.6278005990675111E-01 
    8.6134671654771910E-01 
    8.5931348851139278E-01 
    8.6077786127798606E-01 
    8.5835364159450345E-01 
    8.5684714730500844E-01 
    8.5393713826370810E-01 
    8.5549882625053397E-01 
    8.5220465166435933E-01 
    8.5057246504492667E-01 
    8.4674179903417246E-01 
    8.4846228415997871E-01 
    8.4426298282226053E-01 
    8.4243363986987796E-01 
    8.3763653093251789E-01 
    8.3959830781098310E-01 
    8.3446037401108764E-01 
    8.3233933227387769E-01 
    8.2653155132929779E-01 
    8.2884214768470588E-01 
    8.2273778088573202E-01 
    8.2020372866696767E-01 
    8.1334787186184343E-01 
    8.1614297479464504E-01 
    8.0905535895571679E-01 
    8.0595792534799737E-01 
    7.9803025802530858E-01 
    8.0147486895924513E-01 
    7.9340410094304392E-01 
    7.8956414399986830E-01 
    7.8056220602150972E-01 
    7.8484861816223417E-01 
    7.7581718374647368E-01 
    7.7103078722299689E-01 
    7.6098021617948519E-01 
    7.6632189559628305E-01 
    7.5637820485317731E-01 
    7.5042493449742109E-01 
    7.3938346583099490E-01 
    7.4600480853991968E-01 
    8.5302259329033292E-01 
    8.5011294497775192E-01 
    8.5264876551706081E-01 
    8.5553588187505514E-01 
    8.5771446217133862E-01 
    8.5485126831422742E-01 
    8.5671237108142984E-01 
    8.5955050442091108E-01 
    8.6103619996445946E-01 
    8.5822398095484509E-01 
    8.5937798108269636E-01 
    8.6216374303491927E-01 
    8.6292528051243933E-01 
    8.6016617321320787E-01 
    8.6058017954779753E-01 
    8.6331283220366162E-01 
    8.6331818875598942E-01 
    8.6061131377254307E-01 
    8.6025043396062983E-01 
    8.6293279671446377E-01 
    8.6214764086710427E-01 
    8.5948779011941512E-01 
    8.5831287787385879E-01 
    8.6095313358181524E-01 
    8.5933901994406492E-01 
    8.5671430815786320E-01 
    8.5467970144453509E-01 
    8.5729430660571992E-01 
    8.5480722159746692E-01 
    8.5219561426722268E-01 
    8.4924750561673068E-01 
    8.5186521201891274E-01 
    8.4845498645695305E-01 
    8.4581975115286445E-01 
    8.4189571385588524E-01 
    8.4456260906106673E-01 
    8.4017365222513529E-01 
    8.3745788051385184E-01 
    8.3248807398225344E-01 
    8.3527341453815207E-01 
    8.2984720977649318E-01 
    8.2696775108423981E-01 
    8.2087839489599146E-01 
    8.2388073089304437E-01 
    8.1736048988021837E-01 
    8.1420200747376403E-01 
    8.0692170428890875E-01 
    8.1027432974753444E-01 
    8.0261199847345210E-01 
    7.9902240425174564E-01 
    7.9049159891860865E-01 
    7.9436576670473924E-01 
    7.8553106160641273E-01 
    7.8132017140472954E-01 
    7.7150322054472198E-01 
    7.7610707959410941E-01 
    7.6609733238994060E-01 
    7.6104083097699216E-01 
    7.4993871851804772E-01 
    7.5551007628360611E-01 
    7.4435857629754199E-01 
    7.3820867707455939E-01 
    7.2586876308122839E-01 
    7.3266116722225072E-01 
    8.4640636573201988E-01 
    8.4185019825277707E-01 
    8.4444254948019526E-01 
    8.4896848428682481E-01 
    8.5119984443476515E-01 
    8.4670795558425538E-01 
    8.4863774214536702E-01 
    8.5309209490167115E-01 
    8.5463687480481865E-01 
    8.5022327227589567E-01 
    8.5145598008741930E-01 
    8.5582581512049671E-01 
    8.5665047404885575E-01 
    8.5232729771317639E-01 
    8.5282849330628607E-01 
    8.5710221309030643E-01 
    8.5717203011878107E-01 
    8.5295044954624244E-01 
    8.5268341185549690E-01 
    8.5685036813783877E-01 
    8.5612691675111452E-01 
    8.5201672972404285E-01 
    8.5093860781510922E-01 
    8.5499042022998806E-01 
    8.5342850301962481E-01 
    8.4943587810166032E-01 
    8.4749380089087223E-01 
    8.5142752136474620E-01 
    8.4897244869697119E-01 
    8.4509590121077616E-01 
    8.4222384734681122E-01 
    8.4604680245186659E-01 
    8.4263262088057733E-01 
    8.3885737994513543E-01 
    8.3497430267236428E-01 
    8.3871049992493962E-01 
    8.3425970202560107E-01 
    8.3055054857259925E-01 
    8.2556033959297959E-01 
    8.2925835046096497E-01 
    8.2368372401793588E-01 
    8.1997645976670375E-01 
    8.1377066459848413E-01 
    8.1751266690768254E-01 
    8.1072212716043113E-01 
    8.0691424942024670E-01 
    7.9937879672480938E-01 
    8.0328983242729057E-01 
    7.9519510426089091E-01 
    7.9113711528900121E-01 
    7.8216437056563815E-01 
    7.8641979966391329E-01 
    7.7694935144738608E-01 
    7.7243938466273154E-01 
    7.6194605419515371E-01 
    7.6677385705347445E-01 
    7.5588914094846638E-01 
    7.5067479628330525E-01 
    7.3862389184773569E-01 
    7.4429769301479709E-01 
    7.3200937210508343E-01 
    7.2580056214046695E-01 
    7.1222160670646661E-01 
    7.1904176949723475E-01 
    8.3639160350757513E-01 
    8.2997744662811945E-01 
    8.3264304174195325E-01 
    8.3901833775888945E-01 
    8.4132327916366167E-01 
    8.3499343428605610E-01 
    8.3701876512457296E-01 