# vtk DataFile Version 2.0
Pressure Field Data 
ASCII 
DATASET UNSTRUCTURED_GRID 

POINTS 1089 float 

    0.0000000000000000E+00     0.0000000000000000E+00     0.0000000000000000E+00 
    1.0000000000000000E+00     0.0000000000000000E+00     0.0000000000000000E+00 
    1.0000000000000000E+00     1.0000000000000000E+00     0.0000000000000000E+00 
    0.0000000000000000E+00     1.0000000000000000E+00     0.0000000000000000E+00 
    3.1249999999941821E-02     0.0000000000000000E+00     0.0000000000000000E+00 
    6.2499999999872928E-02     0.0000000000000000E+00     0.0000000000000000E+00 
    9.3749999999823030E-02     0.0000000000000000E+00     0.0000000000000000E+00 
    1.2499999999977310E-01     0.0000000000000000E+00     0.0000000000000000E+00 
    1.5624999999968331E-01     0.0000000000000000E+00     0.0000000000000000E+00 
    1.8749999999959341E-01     0.0000000000000000E+00     0.0000000000000000E+00 
    2.1874999999950220E-01     0.0000000000000000E+00     0.0000000000000000E+00 
    2.4999999999941089E-01     0.0000000000000000E+00     0.0000000000000000E+00 
    2.8124999999931971E-01     0.0000000000000000E+00     0.0000000000000000E+00 
    3.1249999999922851E-01     0.0000000000000000E+00     0.0000000000000000E+00 
    3.4374999999913730E-01     0.0000000000000000E+00     0.0000000000000000E+00 
    3.7499999999904610E-01     0.0000000000000000E+00     0.0000000000000000E+00 
    4.0624999999895478E-01     0.0000000000000000E+00     0.0000000000000000E+00 
    4.3749999999886358E-01     0.0000000000000000E+00     0.0000000000000000E+00 
    4.6874999999877792E-01     0.0000000000000000E+00     0.0000000000000000E+00 
    4.9999999999869210E-01     0.0000000000000000E+00     0.0000000000000000E+00 
    5.3124999999876910E-01     0.0000000000000000E+00     0.0000000000000000E+00 
    5.6249999999884603E-01     0.0000000000000000E+00     0.0000000000000000E+00 
    5.9374999999892841E-01     0.0000000000000000E+00     0.0000000000000000E+00 
    6.2499999999901090E-01     0.0000000000000000E+00     0.0000000000000000E+00 
    6.5624999999909328E-01     0.0000000000000000E+00     0.0000000000000000E+00 
    6.8749999999917577E-01     0.0000000000000000E+00     0.0000000000000000E+00 
    7.1874999999925815E-01     0.0000000000000000E+00     0.0000000000000000E+00 
    7.4999999999934064E-01     0.0000000000000000E+00     0.0000000000000000E+00 
    7.8124999999942302E-01     0.0000000000000000E+00     0.0000000000000000E+00 
    8.1249999999950551E-01     0.0000000000000000E+00     0.0000000000000000E+00 
    8.4374999999958789E-01     0.0000000000000000E+00     0.0000000000000000E+00 
    8.7499999999967026E-01     0.0000000000000000E+00     0.0000000000000000E+00 
    9.0624999999975264E-01     0.0000000000000000E+00     0.0000000000000000E+00 
    9.3749999999983513E-01     0.0000000000000000E+00     0.0000000000000000E+00 
    9.6874999999991751E-01     0.0000000000000000E+00     0.0000000000000000E+00 
    1.0000000000000000E+00     3.1249999999941821E-02     0.0000000000000000E+00 
    1.0000000000000000E+00     6.2499999999872928E-02     0.0000000000000000E+00 
    1.0000000000000000E+00     9.3749999999823030E-02     0.0000000000000000E+00 
    1.0000000000000000E+00     1.2499999999977310E-01     0.0000000000000000E+00 
    1.0000000000000000E+00     1.5624999999968331E-01     0.0000000000000000E+00 
    1.0000000000000000E+00     1.8749999999959341E-01     0.0000000000000000E+00 
    1.0000000000000000E+00     2.1874999999950220E-01     0.0000000000000000E+00 
    1.0000000000000000E+00     2.4999999999941089E-01     0.0000000000000000E+00 
    1.0000000000000000E+00     2.8124999999931971E-01     0.0000000000000000E+00 
    1.0000000000000000E+00     3.1249999999922851E-01     0.0000000000000000E+00 
    1.0000000000000000E+00     3.4374999999913730E-01     0.0000000000000000E+00 
    1.0000000000000000E+00     3.7499999999904610E-01     0.0000000000000000E+00 
    1.0000000000000000E+00     4.0624999999895478E-01     0.0000000000000000E+00 
    1.0000000000000000E+00     4.3749999999886358E-01     0.0000000000000000E+00 
    1.0000000000000000E+00     4.6874999999877792E-01     0.0000000000000000E+00 
    1.0000000000000000E+00     4.9999999999869210E-01     0.0000000000000000E+00 
    1.0000000000000000E+00     5.3124999999876910E-01     0.0000000000000000E+00 
    1.0000000000000000E+00     5.6249999999884603E-01     0.0000000000000000E+00 
    1.0000000000000000E+00     5.9374999999892841E-01     0.0000000000000000E+00 
    1.0000000000000000E+00     6.2499999999901090E-01     0.0000000000000000E+00 
    1.0000000000000000E+00     6.5624999999909328E-01     0.0000000000000000E+00 
    1.0000000000000000E+00     6.8749999999917577E-01     0.0000000000000000E+00 
    1.0000000000000000E+00     7.1874999999925815E-01     0.0000000000000000E+00 
    1.0000000000000000E+00     7.4999999999934064E-01     0.0000000000000000E+00 
    1.0000000000000000E+00     7.8124999999942302E-01     0.0000000000000000E+00 
    1.0000000000000000E+00     8.1249999999950551E-01     0.0000000000000000E+00 
    1.0000000000000000E+00     8.4374999999958789E-01     0.0000000000000000E+00 
    1.0000000000000000E+00     8.7499999999967026E-01     0.0000000000000000E+00 
    1.0000000000000000E+00     9.0624999999975264E-01     0.0000000000000000E+00 
    1.0000000000000000E+00     9.3749999999983513E-01     0.0000000000000000E+00 
    1.0000000000000000E+00     9.6874999999991751E-01     0.0000000000000000E+00 
    9.6874999999986700E-01     1.0000000000000000E+00     0.0000000000000000E+00 
    9.3749999999973976E-01     1.0000000000000000E+00     0.0000000000000000E+00 
    9.0624999999967670E-01     1.0000000000000000E+00     0.0000000000000000E+00 
    8.7499999999950118E-01     1.0000000000000000E+00     0.0000000000000000E+00 
    8.4374999999971556E-01     1.0000000000000000E+00     0.0000000000000000E+00 
    8.1249999999991318E-01     1.0000000000000000E+00     0.0000000000000000E+00 
    7.8125000000010270E-01     1.0000000000000000E+00     0.0000000000000000E+00 
    7.5000000000034706E-01     1.0000000000000000E+00     0.0000000000000000E+00 
    7.1875000000056688E-01     1.0000000000000000E+00     0.0000000000000000E+00 
    6.8750000000078049E-01     1.0000000000000000E+00     0.0000000000000000E+00 
    6.5625000000097422E-01     1.0000000000000000E+00     0.0000000000000000E+00 
    6.2500000000121403E-01     1.0000000000000000E+00     0.0000000000000000E+00 
    5.9375000000151579E-01     1.0000000000000000E+00     0.0000000000000000E+00 
    5.6250000000164757E-01     1.0000000000000000E+00     0.0000000000000000E+00 
    5.3125000000182365E-01     1.0000000000000000E+00     0.0000000000000000E+00 
    5.0000000000205946E-01     1.0000000000000000E+00     0.0000000000000000E+00 
    4.6875000000194023E-01     1.0000000000000000E+00     0.0000000000000000E+00 
    4.3750000000182099E-01     1.0000000000000000E+00     0.0000000000000000E+00 
    4.0625000000169093E-01     1.0000000000000000E+00     0.0000000000000000E+00 
    3.7500000000156092E-01     1.0000000000000000E+00     0.0000000000000000E+00 
    3.4375000000143069E-01     1.0000000000000000E+00     0.0000000000000000E+00 
    3.1250000000130068E-01     1.0000000000000000E+00     0.0000000000000000E+00 
    2.8125000000117062E-01     1.0000000000000000E+00     0.0000000000000000E+00 
    2.5000000000104050E-01     1.0000000000000000E+00     0.0000000000000000E+00 
    2.1875000000091041E-01     1.0000000000000000E+00     0.0000000000000000E+00 
    1.8750000000078040E-01     1.0000000000000000E+00     0.0000000000000000E+00 
    1.5625000000065031E-01     1.0000000000000000E+00     0.0000000000000000E+00 
    1.2500000000052031E-01     1.0000000000000000E+00     0.0000000000000000E+00 
    9.3750000000390132E-02     1.0000000000000000E+00     0.0000000000000000E+00 
    6.2500000000260125E-02     1.0000000000000000E+00     0.0000000000000000E+00 
    3.1250000000130007E-02     1.0000000000000000E+00     0.0000000000000000E+00 
    0.0000000000000000E+00     9.6874999999986700E-01     0.0000000000000000E+00 
    0.0000000000000000E+00     9.3749999999973976E-01     0.0000000000000000E+00 
    0.0000000000000000E+00     9.0624999999967670E-01     0.0000000000000000E+00 
    0.0000000000000000E+00     8.7499999999950118E-01     0.0000000000000000E+00 
    0.0000000000000000E+00     8.4374999999971556E-01     0.0000000000000000E+00 
    0.0000000000000000E+00     8.1249999999991318E-01     0.0000000000000000E+00 
    0.0000000000000000E+00     7.8125000000010270E-01     0.0000000000000000E+00 
    0.0000000000000000E+00     7.5000000000034706E-01     0.0000000000000000E+00 
    0.0000000000000000E+00     7.1875000000056688E-01     0.0000000000000000E+00 
    0.0000000000000000E+00     6.8750000000078049E-01     0.0000000000000000E+00 
    0.0000000000000000E+00     6.5625000000097422E-01     0.0000000000000000E+00 
    0.0000000000000000E+00     6.2500000000121403E-01     0.0000000000000000E+00 
    0.0000000000000000E+00     5.9375000000151579E-01     0.0000000000000000E+00 
    0.0000000000000000E+00     5.6250000000164757E-01     0.0000000000000000E+00 
    0.0000000000000000E+00     5.3125000000182365E-01     0.0000000000000000E+00 
    0.0000000000000000E+00     5.0000000000205946E-01     0.0000000000000000E+00 
    0.0000000000000000E+00     4.6875000000194023E-01     0.0000000000000000E+00 
    0.0000000000000000E+00     4.3750000000182099E-01     0.0000000000000000E+00 
    0.0000000000000000E+00     4.0625000000169093E-01     0.0000000000000000E+00 
    0.0000000000000000E+00     3.7500000000156092E-01     0.0000000000000000E+00 
    0.0000000000000000E+00     3.4375000000143069E-01     0.0000000000000000E+00 
    0.0000000000000000E+00     3.1250000000130068E-01     0.0000000000000000E+00 
    0.0000000000000000E+00     2.8125000000117062E-01     0.0000000000000000E+00 
[...]
CELL_DATA 1024 
SCALARS Pressure float 1 
LOOKUP_TABLE default 

    6.7622689076729614E-01 
    6.7673474583314586E-01 
    6.7961240787041277E-01 
    6.7940973122209602E-01 
    6.8194871681069424E-01 
    6.8210210204543187E-01 
    6.8418946256589053E-01 
    6.8400645317570896E-01 
    6.8566536081551310E-01 
    6.8589922900523415E-01 
    6.8725855420940463E-01 
    6.8697290538752631E-01 
    6.8795968307840805E-01 
    6.8829031259660123E-01 
    6.8901308565835817E-01 
    6.8864742546382085E-01 
    6.8905289588753638E-01 
    6.8944227814288217E-01 
    6.8959116174524304E-01 
    6.8918996036546698E-01 
    6.8907078602115135E-01 
    6.8947167328430248E-01 
    6.8909501038429122E-01 
    6.8870659917878618E-01 
    6.8810821408713874E-01 
    6.8847209199307557E-01 
    6.8761393733879306E-01 
    6.8728644205335632E-01 
    6.8625244161419752E-01 
    6.8653200088459188E-01 
    6.8523848790416919E-01 
    6.8501804437040414E-01 
    6.8359607827345814E-01 
    6.8374666831235120E-01 
    6.8207120059250870E-01 
    6.8200070227726062E-01 
    6.8024776227628769E-01 
    6.8022847487312121E-01 
    6.7823698233780649E-01 
    6.7835517574038517E-01 
    6.7634335051532024E-01 
    6.7611771709122481E-01 
    6.7389461586442845E-01 
    6.7423564080557996E-01 
    6.7205883893311946E-01 
    6.7159504044141427E-01 
    6.6925030727059753E-01 
    6.6984369230417018E-01 
    6.6762541532074704E-01 
    6.6689627041983013E-01 
    6.6457397156551590E-01 
    6.6544412183388857E-01 
    6.6334500134753582E-01 
    6.6233040422443856E-01 
    6.6021956431553885E-01 
    6.6137781183456013E-01 
    6.5959461335646752E-01 
    6.5830441708926013E-01 
    6.5666208682274663E-01 
    6.5804286708491622E-01 
    6.5674525339477330E-01 
    6.5540078350365671E-01 
    6.5471854742891678E-01 
    6.5561207400503763E-01 
    6.7734542357591732E-01 
    6.7807315381141853E-01 
    6.8079141747808058E-01 
    6.8011347402014843E-01 
    6.8255094419483942E-01 
    6.8319148659738427E-01 
    6.8525572190446082E-01 
    6.8463205432851881E-01 
    6.8635824002945889E-01 
    6.8697950857138335E-01 
    6.8836662586589681E-01 
    6.8774126504267175E-01 
    6.8879533949633776E-01 
    6.8942493948633943E-01 
    6.9016388916659388E-01 
    6.8953430086972667E-01 
    6.8997091468060334E-01 
    6.9059331425934567E-01 
    6.9072302848369227E-01 
    6.9011693875242019E-01 
    6.8998341766252369E-01 
    6.9056276342443990E-01 
    6.9012228089782979E-01 
    6.8958102019218759E-01 
    6.8892036458129702E-01 
    6.8941155856870828E-01 
    6.8844100827753030E-01 
    6.8801232405091317E-01 
    6.8686831824003258E-01 
    6.8722171095926776E-01 
    6.8576566457476340E-01 
    6.8550060041689564E-01 
    6.8392254939910546E-01 
    6.8408604538611051E-01 
    6.8219748585283324E-01 
    6.8214897382343764E-01 
    6.8019643546930975E-01 
    6.8011637212371079E-01 
    6.7786116568960708E-01 
    6.7808359766128679E-01 
    6.7583160493503758E-01 
    6.7545275397863269E-01 
    6.7291483683193809E-01 
    6.7346450096491350E-01 
    6.7100969467849436E-01 
    6.7027435906196020E-01 
    6.6756200669450272E-01 
    6.6849848932137235E-01 
    6.6596670489401932E-01 
    6.6481279849748987E-01 
    6.6206683315391934E-01 
    6.6345545428411412E-01 
    6.6101221206492755E-01 
    6.5937030727377810E-01 
    6.5677702454623066E-01 
    6.5869250059369788E-01 
    6.5656297290650889E-01 
    6.5435079153037179E-01 
    6.5216931420571200E-01 
    6.5470774239524310E-01 
    6.5324212532499604E-01 
    6.5033013273635842E-01 
    6.4895717850418833E-01 
    6.5234153771416736E-01 
    6.7888226034083088E-01 
    6.7972171213054589E-01 
    6.8238927633668023E-01 
    6.8157110593336523E-01 
    6.8394359204908428E-01 
    6.8473938241844412E-01 
    6.8676370456104618E-01 
    6.8598821346790162E-01 
    6.8769959596098040E-01 
    6.8845717276872331E-01 
    6.8981827844020360E-01 
    6.8907788922238511E-01 
    6.9012696200589185E-01 
    6.9084844910854670E-01 
    6.9155122269422442E-01 
    6.9085284049960960E-01 
    6.9126270839293324E-01 
    6.9193156769706177E-01 
    6.9199543570945377E-01 
    6.9136437928907957E-01 
    6.9116608182036099E-01 
    6.9174951980766963E-01 
    6.9120116565746059E-01 
    6.9067643193401373E-01 
    6.8990451222605931E-01 
    6.9035838719216858E-01 
    6.8922995188124203E-01 
    6.8886001329609492E-01 
    6.8755341291319672E-01 
    6.8782551385471735E-01 
    6.8615578092860874E-01 
    6.8599618194578449E-01 
    6.8420101120507815E-01 
    6.8423270856987017E-01 
    6.8206971581274733E-01 
    6.8218205925867803E-01 
    6.7995522001170761E-01 
    6.7968192249104253E-01 
    6.7708640513480156E-01 
    6.7753841304906692E-01 
    6.7495189911349152E-01 
    6.7430247447611913E-01 
    6.7135197381046874E-01 
    6.7221862552399547E-01 
    6.6936460890465876E-01 
    6.6825960222305925E-01 
    6.6505326695999445E-01 
    6.6641936777467592E-01 
    6.6341642584207572E-01 
    6.6176447182901421E-01 
    6.5842874977738219E-01 
    6.6039392143205033E-01 
    6.5739537842866969E-01 
    6.5508614482422078E-01 
    6.5178172756720787E-01 
    6.5447071653991074E-01 
    6.5167757297873286E-01 
    6.4856606254509530E-01 
    6.4549536668417629E-01 
    6.4908287260694042E-01 
    6.4676402076141248E-01 
    6.4263068515326116E-01 
    6.4003461748084534E-01 
    6.4480737759834683E-01 
    6.8053601775024297E-01 
    6.8126882538037814E-01 
    6.8390480711225232E-01 
    6.8318641493223853E-01 
    6.8551700138885174E-01 
    6.8621780977718294E-01 
    6.8820160086370363E-01 
    6.8752092196446091E-01 
    6.8919337252931889E-01 
    6.8985143428028373E-01 
    6.9116431502486098E-01 
    6.9053196318389165E-01 
    6.9153655579153406E-01 
    6.9213899538665435E-01 
    6.9277580156673479E-01 
    6.9220886825992711E-01 
    6.9255206346306886E-01 
    6.9307640430693929E-01 
    6.9304361139218784E-01 
    6.9257042851693507E-01 
    6.9226916952830564E-01 
    6.9268121805250538E-01 
    6.9199392500115076E-01 
    6.9165431330962301E-01 
    6.9073269451494534E-01 
    6.9098731969124649E-01 
    6.8966790973539427E-01 
    6.8951200667058810E-01 
    6.8800090133064418E-01 
    6.8804320161507315E-01 
    6.8612181093310887E-01 
    6.8620912384095378E-01 
    6.8414767733196025E-01 
    6.8391360351037644E-01 
    6.8142985642172627E-01 
    6.8182900977581617E-01 
    6.7926722053860367E-01 
    6.7868343758764971E-01 
    6.7568899887909317E-01 
    6.7647828379021202E-01 
    6.7348028668129656E-01 
    6.7246317888423257E-01 
    6.6902481089601362E-01 
    6.7029368070865836E-01 
    6.6694154401083783E-01 
    6.6539513037923748E-01 
    6.6159797402012577E-01 
    6.6344985226483955E-01 
    6.5984775293427267E-01 
    6.5765995800683485E-01 
    6.5361061534392273E-01 
    6.5616783257232625E-01 
    6.5244635276307339E-01 
    6.4948245709097174E-01 
    6.4531089613516490E-01 
    6.4872339971306447E-01 
    6.4504282748251185E-01 
    6.4113392804139846E-01 
    6.3699139707706143E-01 
    6.4145175092440543E-01 
    6.3799913746768033E-01 
    6.3292360049185292E-01 
    6.2896895141743525E-01 
    6.3473279632500401E-01 
    6.8186411877437170E-01 
    6.8226657322530959E-01 
    6.8488059620649466E-01 
    6.8448800327805159E-01 
    6.8678514044618988E-01 
    6.8716369735816607E-01 
    6.8910985768206912E-01 
    6.8874950877408858E-01 
    6.9037625202473762E-01 
    6.9071400046213216E-01 
    6.9197211289659921E-01 
    6.9166185689762649E-01 
    6.9260419473978940E-01 
    6.9288129897258266E-01 
    6.9343976678776564E-01 
    6.9320245823492388E-01 
    6.9345704263101249E-01 
    6.9364677724380364E-01 
    6.9350257697095696E-01 
    6.9336942306778448E-01 
    6.9294205736730707E-01 
    6.9300834549673151E-01 
    6.9216616111723694E-01 
    6.9217832944700608E-01 
    6.9108253644191420E-01 
    6.9097900092291065E-01 
    6.8945076913401537E-01 
    6.8965991716042752E-01 
    6.8791671699602663E-01 
    6.8758635612313690E-01 
    6.8539172361094469E-01 
    6.8586028349594164E-01 
    6.8349918734115933E-01 
    6.8287401238684375E-01 
    6.8004166828234658E-01 
    6.8084336363739051E-01 
    6.7790426878498855E-01 
    6.7690458178126844E-01 
    6.7347423610008483E-01 
    6.7469504808688585E-01 
    6.7123070876979030E-01 
    6.6976385770187064E-01 
    6.6578856188022573E-01 
    6.6752829208765885E-01 
    6.6360703638904350E-01 
    6.6156548407722715E-01 
    6.5711388474518895E-01 
    6.5948852019399329E-01 
    6.5519676952219830E-01 
    6.5245521140924756E-01 
    6.4761309578579573E-01 
    6.5075830645597121E-01 
    6.4620210380667031E-01 
    6.4261325574538553E-01 
    6.3748326182305848E-01 
    6.4155939313091326E-01 
    6.3686324902820757E-01 
    6.3225211723311392E-01 
    6.2694959374322923E-01 
    6.3214784516323963E-01 
    6.2744726324609912E-01 
    6.2160527457302428E-01 
    6.1624729866721950E-01 
    6.2279377118046164E-01 
    6.8242159694943583E-01 
    6.8227525984752158E-01 
    6.8487657750201447E-01 
    6.8502805571261605E-01 
    6.8729921029424279E-01 
    6.8713820185278451E-01 
    6.8905381691991685E-01 
    6.8922892953200021E-01 
    6.9081184456286215E-01 
    6.9061771364379598E-01 
    6.9182486085221784E-01 
    6.9204343962635839E-01 
    6.9292010448445984E-01 
    6.9267095762643915E-01 
    6.9315245751025112E-01 
    6.9343914762783010E-01 
    6.9359878129855235E-01 
    6.9326657562812799E-01 
    6.9301128463563810E-01 
    6.9339809413358489E-01 
    6.9283702659046753E-01 
    6.9238531103254985E-01 
    6.9138813981933511E-01 
    6.9191635998764689E-01 
    6.9063772605017304E-01 
    6.9002003367661779E-01 
    6.8828207025549482E-01 
    6.8900363987342439E-01 
    6.8701755672930953E-01 
    6.8617619908344285E-01 
    6.8370531791211897E-01 
    6.8468395131593973E-01 
    6.8200841689766112E-01 
    6.8087336702030887E-01 
    6.7768543887671040E-01 
    6.7899778091086116E-01 
    6.7566023282367926E-01 
    6.7414789951868059E-01 
    6.7026851688292532E-01 
    6.7200545914329424E-01 
    6.6804477933335382E-01 
    6.6605659003044870E-01 
    6.6152307166318747E-01 
    6.6379127492163825E-01 
    6.5925990212479213E-01 
    6.5668067447730794E-01 
    6.5154394971316587E-01 
    6.5446757576799253E-01 
    6.4943320899394208E-01 
    6.4612932377177634E-01 
    6.4045507611937269E-01 
    6.4417768918808549E-01 
    6.3872376579251644E-01 
    6.3454123925681349E-01 
    6.2840940009083424E-01 
    6.3309582098593264E-01 
    6.2731949128104336E-01 
    6.2208238305918018E-01 
    6.1558380123467027E-01 
    6.2142111076290296E-01 
    6.1542696133619446E-01 
    6.0893747556810673E-01 
    6.0216674736772990E-01 
    6.0936235029640951E-01 
    6.8177417904711157E-01 
    6.8086538605107494E-01 
    6.8346434251482069E-01 
    6.8437293692007084E-01 
    6.8662780301920867E-01 
    6.8571559223243328E-01 
    6.8761230608689416E-01 
    6.8853222585189511E-01 
    6.9008011782102907E-01 
    6.8914798757028350E-01 
    6.9031652991360259E-01 
    6.9126591844526353E-01 
    6.9208464239081458E-01 
    6.9111226197151221E-01 
    6.9152998185536807E-01 
    6.9253191094758992E-01 
    6.9260396998363827E-01 
    6.9156498036677461E-01 
    6.9121305829239021E-01 
    6.9229770013568415E-01 
    6.9161062617002900E-01 
    6.9047054274545283E-01 
    6.8933430787363559E-01 
    6.9054093205011546E-01 
    6.8908748702359346E-01 
    6.8780180467591101E-01 
    6.8587110367503157E-01 
    6.8724988644773233E-01 
    6.8502850948932337E-01 
    6.8354095302601092E-01 
    6.8081085344069026E-01 
    6.8242459438935410E-01 
    6.7944033069392029E-01 
    6.7768115012464092E-01 
    6.7415314074262889E-01 
    6.7607896666095713E-01 
    6.7234492887347308E-01 
    6.7022919720809726E-01 
    6.6591289777670271E-01 
    6.6824394983899438E-01 
    6.6378319796366880E-01 
    6.6120916447019185E-01 
    6.5612439924703669E-01 
    6.5897140271573074E-01 
    6.5381896602986478E-01 
    6.5066661059430753E-01 
    6.4484552042678867E-01 
    6.4833804909604076E-01 
    6.4254262174481358E-01 
    6.3867263951392506E-01 
    6.3216129839363067E-01 
    6.3644845992804322E-01 
    6.3007307572346871E-01 
    6.2532662029150554E-01 
    6.1818542351355854E-01 
    6.2343556455900950E-01 
    6.1655635698714484E-01 
    6.1075604381449700E-01 
    6.0305807307536530E-01 
    6.0945686869889082E-01 
    6.0215905393890468E-01 
    5.9511201971361005E-01 
    5.8693890830224615E-01 
    5.9468488463660218E-01 
    6.7949619884355594E-01 
    6.7761409201209521E-01 
    6.8022248872876578E-01 
    6.8209830179259312E-01 
    6.8434945201533615E-01 
    6.8247743509190018E-01 
    6.8437143942198131E-01 
    6.8624250640144147E-01 
    6.8777053142027078E-01 
    6.8589710445955654E-01 
    6.8704717919862657E-01 
    6.8892685688686317E-01 
    6.8970511968599169E-01 
    6.8781460061311550E-01 
    6.8819252503548944E-01 
    6.9009929715143181E-01 
    6.9010373174140405E-01 
    6.8817435077378442E-01 
    6.8775373511501614E-01 
    6.8971315031465574E-01 
    6.8892268236772558E-01 
    6.8692460990712445E-01 
    6.8568120037465397E-01 
    6.8772788195578693E-01 
    6.8612475779861415E-01 
    6.8401805177937947E-01 
    6.8193006811824997E-01 
    6.8410981544685279E-01 
    6.8168011452127020E-01 
    6.7941256638856595E-01 
    6.7646134913881195E-01 
    6.7883334305366694E-01 
    6.7556790990715287E-01 
    6.7307279711018475E-01 
    6.6924398276196784E-01 
    6.7188305514012414E-01 
    6.6777897697511401E-01 
    6.6497280433517159E-01 
    6.6025813879806561E-01 
    6.6325697270012429E-01 
    6.5831958933137835E-01 
    6.5510001049034494E-01 
    6.4949977051699637E-01 
    6.5297077819252058E-01 
    6.4721604575076486E-01 
    6.4346027996076349E-01 
    6.3698608787874078E-01 
    6.4106259119744546E-01 
    6.3451941956035751E-01 
    6.3008359301919814E-01 
    6.2276117655430552E-01 
    6.2759741788703238E-01 
    6.2030938165091432E-01 
    6.1502929230463588E-01 
    6.0690050143744934E-01 
    6.1266997950099467E-01 
    6.0469564730710446E-01 
    5.9838944092892687E-01 
    5.8951271947293304E-01 
    5.9640440752871993E-01 
    5.8781561728991760E-01 
    5.8028874087801119E-01 
    5.7073746262775504E-01 
    5.7894965758743822E-01 
    6.7516657348322406E-01 
    6.7210106468487085E-01 
    6.7473233500548613E-01 
    6.7778461989910532E-01 
    6.8004763942150026E-01 
    6.7700809042128540E-01 
    6.7892003663525269E-01 
    6.8194775745440306E-01 
    6.8347708604856694E-01 
    6.8045976594272328E-01 
    6.8161881193934948E-01 
    6.8462777571786093E-01 
    6.8539205554199412E-01 
    6.8238868890844961E-01 
    6.8276091518630899E-01 
    6.8576226114982208E-01 
    6.8573085234393705E-01 
    6.8272702278599284E-01 
    6.8227855766326151E-01 
    6.8529042384691341E-01 
    6.8443371374736772E-01 
    6.8140707617936869E-01 
    6.8010414372918893E-01 
    6.8315361471392066E-01 
    6.8144319304526479E-01 
    6.7836134140147852E-01 
    6.7617028613900743E-01 
    6.7929572028252605E-01 
    6.7670472155445394E-01 
    6.7352266932466098E-01 
    6.7041031811994278E-01 
    6.7366404414187075E-01 
    6.7016794897112497E-01 
    6.6682528324633550E-01 
    6.6275995619740546E-01 
    6.6621122686791456E-01 
    6.6178934037907489E-01 
    6.5820721802964322E-01 
    6.5316062080151860E-01 
    6.5689859073443069E-01 
    6.5153630800113038E-01 
    6.4761460129346193E-01 
    6.4156472472653858E-01 
    6.4570106062041543E-01 
    6.3939287829414782E-01 
    6.3500795371285923E-01 
    6.2794293459844597E-01 
    6.3261347966518566E-01 
    6.2536649358868401E-01 
    6.2037028981729858E-01 
    6.1229290118803670E-01 
    6.1765766035053116E-01 
    6.0949499744881108E-01 
    6.0371616583710586E-01 
    5.9464820446262112E-01 
    6.0088891413090262E-01 
    5.9185226038613070E-01 
    5.8510000191740530E-01 
    5.7508546336124056E-01 
    5.8240029992568765E-01 
    5.7255060274642666E-01 
    5.6462137565913673E-01 
    5.5372727242250597E-01 
    5.6232286040405000E-01 
    6.6836478347426487E-01 
    6.6390462673612660E-01 
    6.6657400457293181E-01 
    6.7101308201160559E-01 
    6.7330662974335687E-01 
    6.6889081005007622E-01 
    6.7084576681839803E-01 
    6.7523666950390060E-01 
    6.7679423954079621E-01 
    6.7242931421140673E-01 
    6.7363168536570295E-01 
    6.7797023592985861E-01 
    6.7875545296634632E-01 
    6.7444295134615606E-01 
    6.7485303088547288E-01 
    6.7914060063256476E-01 
    6.7911630264223743E-01 
    6.7485167193649032E-01 
    6.7442841441986878E-01 
    6.7867308121482395E-01 
    6.7780133587440039E-01 
    6.7357254428448055E-01 
    6.7227304839452673E-01 
    6.7649132369168363E-01 
    6.7473314796635053E-01 
    6.7051857866147835E-01 
    6.6829743275420705E-01 
    6.7251676172105579E-01 
    6.6983199174689867E-01 
    6.6559755787936625E-01 
    6.6240658358279236E-01 
    6.6666858838524556E-01 
    6.6301630575158110E-01 
    6.5871188923601443E-01 
    6.5450071173493185E-01 
    6.5886501664256758E-01 
    6.5420486581093074E-01 
    6.4976029880186370E-01 
    6.4447811295384916E-01 
    6.4902646449785384E-01 
    6.4332112789777629E-01 
    6.3864209043045750E-01 
    6.3224095785138856E-01 
    6.3708115538902355E-01 
    6.3030015068792777E-01 
    6.2526460672995476E-01 
    6.1770452182493896E-01 
    6.2297337541753006E-01 
    6.1509812490774163E-01 
    6.0955425339047475E-01 
    6.0080991569961895E-01 
    6.0667410961198209E-01 
    5.9770381999453737E-01 
    5.9147068537613190E-01 
    5.8153926456639427E-01 
    5.8819284826982288E-01 
    5.7815013852972819E-01 
    5.7102226832945169E-01 
    5.5993049593612498E-01 
    5.6758813915959216E-01 
    5.5652283883130493E-01 
    5.4827905448633962E-01 
    5.3608732005787474E-01 
    5.4497367890783954E-01 
    6.5866704736639559E-01 
    6.5259791610768425E-01 
    6.5532274193324336E-01 
    6.6136182853860204E-01 
    6.6370779522590839E-01 
    6.5770426542715288E-01 
    6.5973188113997083E-01 
    6.6569507048957988E-01 
    6.6731343022887979E-01 
    6.6139460221463797E-01 
    6.6268121621594223E-01 
    6.6855240999932497E-01 
    6.6940135646125709E-01 
    6.6358034707320013E-01 
    6.6408043448128340E-01 
    6.6984942586020202E-01 
    6.6988554149699409E-01 
    6.6416965460339472E-01 
    6.6383580700467548E-01 
    6.6949832529181252E-01 
    6.6867601792243514E-01 
    6.6306618868498057E-01 
    6.6184747091416585E-01 
    6.6740639985573991E-01 
    6.6567672326438276E-01 
    6.6016559022603649E-01 
    6.5800566199222432E-01 
    6.6347366297441512E-01 
    6.6078329341832165E-01 
    6.5535192343116533E-01 
    6.5218771244538076E-01 
    6.5759109803517368E-01 
    6.5388201753287645E-01 
    6.4849548903259524E-01 
    6.4425690693115523E-01 
    6.4964054373923996E-01 
    6.4485086622865018E-01 
    6.3945294441690281E-01 
    6.3406410453390250E-01 
    6.3949707928978539E-01 
    6.3356345679434456E-01 
    6.2807069620323686E-01 
    6.2145320813669358E-01 
    6.2703480172165416E-01 
    6.1989687493049717E-01 
    6.1419278654986298E-01 
    6.0627182424770165E-01 
    6.1213690355410189E-01 
    6.0374416239592521E-01 
    5.9767466133999447E-01 
    5.8838838513014413E-01 
    5.9471061141269099E-01 
    5.8503155898489156E-01 
    5.7840369766562949E-01 
    5.6771579495156332E-01 
    5.7470630580307525E-01 
    5.6373871154059130E-01 
    5.5632517651864544E-01 
    5.4423828772293770E-01 
    5.5213762182895054E-01 
    5.3991710252982883E-01 
    5.3146790367681362E-01 
    5.1803320352043314E-01 
    5.2709645410228945E-01 
    6.4564235089970456E-01 
    6.3774448148692631E-01 
    6.4054505126956374E-01 
    6.4840225887356906E-01 
    6.5082632666073159E-01 
    6.4301942621835040E-01 
    6.4515474546700702E-01 