# vtk DataFile Version 2.0
Pressure Field Data 
ASCII 
DATASET UNSTRUCTURED_GRID 

POINTS 169 float 

    0.0000000000000000E+00     0.0000000000000000E+00     0.0000000000000000E+00 
    1.0000000000000000E+00     0.0000000000000000E+00     0.0000000000000000E+00 
    1.0000000000000000E+00     1.0000000000000000E+00     0.0000000000000000E+00 
    0.0000000000000000E+00     1.0000000000000000E+00     0.0000000000000000E+00 
    5.0000000000000000E-01     0.0000000000000000E+00     0.0000000000000000E+00 
    5.0000000000000000E-01     1.0000000000000000E+00     0.0000000000000000E+00 
    1.0000000000000000E+00     8.0000000000000004E-01     0.0000000000000000E+00 
    8.2999999999999996E-01     8.0000000000000004E-01     0.0000000000000000E+00 
    6.6000000000000003E-01     2.0000000000000001E-01     0.0000000000000000E+00 
    3.4000000000000002E-01     8.0000000000000004E-01     0.0000000000000000E+00 
    1.7000000000000001E-01     2.0000000000000001E-01     0.0000000000000000E+00 
    0.0000000000000000E+00     2.0000000000000001E-01     0.0000000000000000E+00 
    1.7000000000000001E-01     0.0000000000000000E+00     0.0000000000000000E+00 
    1.7000000000000001E-01     1.0000000000000000E+00     0.0000000000000000E+00 
    3.4000000000000002E-01     1.0000000000000000E+00     0.0000000000000000E+00 
    3.4000000000000002E-01     0.0000000000000000E+00     0.0000000000000000E+00 
    6.6000000000000003E-01     0.0000000000000000E+00     0.0000000000000000E+00 
    6.6000000000000003E-01     1.0000000000000000E+00     0.0000000000000000E+00 
    8.2999999999999996E-01     1.0000000000000000E+00     0.0000000000000000E+00 
    8.2999999999999996E-01     0.0000000000000000E+00     0.0000000000000000E+00 
    5.0000000000000000E-01     5.0000000000000000E-01     0.0000000000000000E+00 
    8.4999999999781806E-02     0.0000000000000000E+00     0.0000000000000000E+00 
    2.5499999999978301E-01     0.0000000000000000E+00     0.0000000000000000E+00 
    4.1999999999977228E-01     0.0000000000000000E+00     0.0000000000000000E+00 
    5.7999999999984830E-01     0.0000000000000000E+00     0.0000000000000000E+00 
    7.4499999999969624E-01     0.0000000000000000E+00     0.0000000000000000E+00 
    9.1499999999980464E-01     0.0000000000000000E+00     0.0000000000000000E+00 
    1.0000000000000000E+00     1.3333333333306890E-01     0.0000000000000000E+00 
    1.0000000000000000E+00     2.6666666666600858E-01     0.0000000000000000E+00 
    1.0000000000000000E+00     3.9999999999894842E-01     0.0000000000000000E+00 
    1.0000000000000000E+00     5.3333333333261779E-01     0.0000000000000000E+00 
    1.0000000000000000E+00     6.6666666666631980E-01     0.0000000000000000E+00 
    1.0000000000000000E+00     8.3333333333322490E-01     0.0000000000000000E+00 
    1.0000000000000000E+00     8.6666666666642811E-01     0.0000000000000000E+00 
    1.0000000000000000E+00     8.9999999999982638E-01     0.0000000000000000E+00 
    1.0000000000000000E+00     9.3333333333322477E-01     0.0000000000000000E+00 
    1.0000000000000000E+00     9.6666666666660150E-01     0.0000000000000000E+00 
    9.1500000000028214E-01     1.0000000000000000E+00     0.0000000000000000E+00 
    7.4500000000030375E-01     1.0000000000000000E+00     0.0000000000000000E+00 
    5.8000000000019514E-01     1.0000000000000000E+00     0.0000000000000000E+00 
    4.2000000000019527E-01     1.0000000000000000E+00     0.0000000000000000E+00 
    2.5500000000020051E-01     1.0000000000000000E+00     0.0000000000000000E+00 
    8.5000000000214265E-02     1.0000000000000000E+00     0.0000000000000000E+00 
    0.0000000000000000E+00     8.6666666666703562E-01     0.0000000000000000E+00 
    0.0000000000000000E+00     7.3333333333407114E-01     0.0000000000000000E+00 
    0.0000000000000000E+00     6.0000000000108500E-01     0.0000000000000000E+00 
    0.0000000000000000E+00     4.6666666666741158E-01     0.0000000000000000E+00 
    0.0000000000000000E+00     3.3333333333369503E-01     0.0000000000000000E+00 
    0.0000000000000000E+00     1.6666666666675889E-01     0.0000000000000000E+00 
    0.0000000000000000E+00     1.3333333333351780E-01     0.0000000000000000E+00 
    0.0000000000000000E+00     1.0000000000027399E-01     0.0000000000000000E+00 
    0.0000000000000000E+00     6.6666666666852920E-02     0.0000000000000000E+00 
    0.0000000000000000E+00     3.3333333333423747E-02     0.0000000000000000E+00 
    1.7000000000000001E-01     3.3333333333267212E-02     0.0000000000000000E+00 
    1.7000000000000001E-01     6.6666666666502158E-02     0.0000000000000000E+00 
    1.7000000000000001E-01     9.9999999999737105E-02     0.0000000000000000E+00 
    1.7000000000000001E-01     1.3333333333315450E-01     0.0000000000000000E+00 
    1.7000000000000001E-01     1.6666666666658000E-01     0.0000000000000000E+00 
    1.7000000000000001E-01     3.3333333333306081E-01     0.0000000000000000E+00 
    1.7000000000000001E-01     4.6666666666598061E-01     0.0000000000000000E+00 
    1.7000000000000001E-01     5.9999999999894360E-01     0.0000000000000000E+00 
    1.7000000000000001E-01     7.3333333333261463E-01     0.0000000000000000E+00 
    1.7000000000000001E-01     8.6666666666630743E-01     0.0000000000000000E+00 
    3.4000000000000002E-01     1.3333333333306890E-01     0.0000000000000000E+00 
    3.4000000000000002E-01     2.6666666666600858E-01     0.0000000000000000E+00 
    3.4000000000000002E-01     3.9999999999894842E-01     0.0000000000000000E+00 
    3.4000000000000002E-01     5.3333333333261779E-01     0.0000000000000000E+00 
    3.4000000000000002E-01     6.6666666666631980E-01     0.0000000000000000E+00 
    3.4000000000000002E-01     8.3333333333322490E-01     0.0000000000000000E+00 
    3.4000000000000002E-01     8.6666666666642811E-01     0.0000000000000000E+00 
    3.4000000000000002E-01     8.9999999999982638E-01     0.0000000000000000E+00 
    3.4000000000000002E-01     9.3333333333322477E-01     0.0000000000000000E+00 
    3.4000000000000002E-01     9.6666666666660150E-01     0.0000000000000000E+00 
    5.0000000000000000E-01     8.3333333333160439E-02     0.0000000000000000E+00 
    5.0000000000000000E-01     1.6666666666625049E-01     0.0000000000000000E+00 
    5.0000000000000000E-01     2.4999999999934600E-01     0.0000000000000000E+00 
    5.0000000000000000E-01     3.3333333333289372E-01     0.0000000000000000E+00 
    5.0000000000000000E-01     4.1666666666644692E-01     0.0000000000000000E+00 
    5.0000000000000000E-01     5.8333333333333337E-01     0.0000000000000000E+00 
    5.0000000000000000E-01     6.6666666666666663E-01     0.0000000000000000E+00 
    5.0000000000000000E-01     7.5000000000000000E-01     0.0000000000000000E+00 
    5.0000000000000000E-01     8.3333333333333326E-01     0.0000000000000000E+00 
    5.0000000000000000E-01     9.1666666666666663E-01     0.0000000000000000E+00 
    6.6000000000000003E-01     3.3333333333267212E-02     0.0000000000000000E+00 
    6.6000000000000003E-01     6.6666666666502158E-02     0.0000000000000000E+00 
    6.6000000000000003E-01     9.9999999999737105E-02     0.0000000000000000E+00 
    6.6000000000000003E-01     1.3333333333315450E-01     0.0000000000000000E+00 
    6.6000000000000003E-01     1.6666666666658000E-01     0.0000000000000000E+00 
    6.6000000000000003E-01     3.3333333333306081E-01     0.0000000000000000E+00 
    6.6000000000000003E-01     4.6666666666598061E-01     0.0000000000000000E+00 
    6.6000000000000003E-01     5.9999999999894360E-01     0.0000000000000000E+00 
    6.6000000000000003E-01     7.3333333333261463E-01     0.0000000000000000E+00 
    6.6000000000000003E-01     8.6666666666630743E-01     0.0000000000000000E+00 
    8.2999999999999996E-01     1.3333333333306890E-01     0.0000000000000000E+00 
    8.2999999999999996E-01     2.6666666666600858E-01     0.0000000000000000E+00 
    8.2999999999999996E-01     3.9999999999894842E-01     0.0000000000000000E+00 
    8.2999999999999996E-01     5.3333333333261779E-01     0.0000000000000000E+00 
    8.2999999999999996E-01     6.6666666666631980E-01     0.0000000000000000E+00 
    8.2999999999999996E-01     8.3333333333322490E-01     0.0000000000000000E+00 
    8.2999999999999996E-01     8.6666666666642811E-01     0.0000000000000000E+00 
    8.2999999999999996E-01     8.9999999999982638E-01     0.0000000000000000E+00 
    8.2999999999999996E-01     9.3333333333322477E-01     0.0000000000000000E+00 
    8.2999999999999996E-01     9.6666666666660150E-01     0.0000000000000000E+00 
    8.4999999999781806E-02     2.0000000000000001E-01     0.0000000000000000E+00 
    2.5499999999977202E-01     4.9999999999919531E-01     0.0000000000000000E+00 
    4.1999999999987758E-01     6.5000000000022951E-01     0.0000000000000000E+00 
    5.7999999999983576E-01     3.5000000000030801E-01     0.0000000000000000E+00 
    7.4499999999976552E-01     4.9999999999917250E-01     0.0000000000000000E+00 
    9.1499999999980464E-01     8.0000000000000004E-01     0.0000000000000000E+00 
    8.4999999999781806E-02     3.3333333333345483E-02     0.0000000000000000E+00 
    8.4999999999781820E-02     6.6666666666677546E-02     0.0000000000000000E+00 
    8.4999999999781806E-02     1.0000000000000550E-01     0.0000000000000000E+00 
    8.4999999999781806E-02     1.3333333333333611E-01     0.0000000000000000E+00 
    8.4999999999781806E-02     1.6666666666666941E-01     0.0000000000000000E+00 
    2.5499999999978118E-01     8.3333333333033915E-02     0.0000000000000000E+00 
    2.5499999999977929E-01     1.6666666666598720E-01     0.0000000000000000E+00 
    2.5499999999977740E-01     2.4999999999894040E-01     0.0000000000000000E+00 
    2.5499999999977557E-01     3.3333333333234971E-01     0.0000000000000000E+00 
    2.5499999999977391E-01     4.1666666666577912E-01     0.0000000000000000E+00 
    4.1999999999978971E-01     1.0833333333315290E-01     0.0000000000000000E+00 
    4.1999999999980731E-01     2.1666666666620610E-01     0.0000000000000000E+00 
    4.1999999999982501E-01     3.2499999999926188E-01     0.0000000000000000E+00 
    4.1999999999984239E-01     4.3333333333290880E-01     0.0000000000000000E+00 
    4.1999999999985999E-01     5.4166666666657448E-01     0.0000000000000000E+00 
    5.7999999999984608E-01     5.8333333333265167E-02     0.0000000000000000E+00 
    5.7999999999984408E-01     1.1666666666647900E-01     0.0000000000000000E+00 
    5.7999999999984186E-01     1.7499999999969559E-01     0.0000000000000000E+00 
    5.7999999999983987E-01     2.3333333333322939E-01     0.0000000000000000E+00 
    5.7999999999983787E-01     2.9166666666677010E-01     0.0000000000000000E+00 
    7.4499999999970790E-01     8.3333333333030127E-02     0.0000000000000000E+00 
    7.4499999999971933E-01     1.6666666666597951E-01     0.0000000000000000E+00 
    7.4499999999973099E-01     2.4999999999892900E-01     0.0000000000000000E+00 
    7.4499999999974242E-01     3.3333333333233439E-01     0.0000000000000000E+00 
    7.4499999999975397E-01     4.1666666666576019E-01     0.0000000000000000E+00 
    9.1499999999980464E-01     1.3333333333306890E-01     0.0000000000000000E+00 
    9.1499999999980464E-01     2.6666666666600858E-01     0.0000000000000000E+00 
    9.1499999999980464E-01     3.9999999999894842E-01     0.0000000000000000E+00 
    9.1499999999980464E-01     5.3333333333261779E-01     0.0000000000000000E+00 
    9.1499999999980464E-01     6.6666666666631980E-01     0.0000000000000000E+00 
    8.4999999999853859E-02     3.3333333333337789E-01     0.0000000000000000E+00 
    8.4999999999925954E-02     4.6666666666669598E-01     0.0000000000000000E+00 
    8.4999999999998022E-02     6.0000000000001441E-01     0.0000000000000000E+00 
    8.5000000000070103E-02     7.3333333333334294E-01     0.0000000000000000E+00 
    8.5000000000142184E-02     8.6666666666667158E-01     0.0000000000000000E+00 
    2.5499999999984352E-01     5.8333333333247239E-01     0.0000000000000000E+00 
    2.5499999999991479E-01     6.6666666666566776E-01     0.0000000000000000E+00 
    2.5499999999998618E-01     7.4999999999898259E-01     0.0000000000000000E+00 
    2.5500000000005768E-01     8.3333333333265114E-01     0.0000000000000000E+00 
    2.5500000000012918E-01     9.1666666666632035E-01     0.0000000000000000E+00 
    4.1999999999993048E-01     7.0833333333347026E-01     0.0000000000000000E+00 
    4.1999999999998350E-01     7.6666666666670036E-01     0.0000000000000000E+00 
    4.2000000000003651E-01     8.2500000000002793E-01     0.0000000000000000E+00 
    4.2000000000008941E-01     8.8333333333335529E-01     0.0000000000000000E+00 
    4.2000000000014232E-01     9.4166666666667220E-01     0.0000000000000000E+00 
    5.7999999999989571E-01     4.5833333333345377E-01     0.0000000000000000E+00 
    5.7999999999995566E-01     5.6666666666652898E-01     0.0000000000000000E+00 
    5.8000000000001539E-01     6.7499999999962579E-01     0.0000000000000000E+00 
    5.8000000000007534E-01     7.8333333333307675E-01     0.0000000000000000E+00 
    5.8000000000013530E-01     8.9166666666653849E-01     0.0000000000000000E+00 
    7.4499999999985511E-01     5.8333333333245319E-01     0.0000000000000000E+00 
    7.4499999999994526E-01     6.6666666666565277E-01     0.0000000000000000E+00 
    7.4500000000003486E-01     7.4999999999897116E-01     0.0000000000000000E+00 
    7.4500000000012456E-01     8.3333333333264370E-01     0.0000000000000000E+00 
    7.4500000000021416E-01     9.1666666666631658E-01     0.0000000000000000E+00 
    9.1499999999988413E-01     8.3333333333322490E-01     0.0000000000000000E+00 
    9.1499999999996384E-01     8.6666666666642811E-01     0.0000000000000000E+00 
    9.1500000000004356E-01     8.9999999999982638E-01     0.0000000000000000E+00 
    9.1500000000012305E-01     9.3333333333322477E-01     0.0000000000000000E+00 
    9.1500000000020254E-01     9.6666666666660150E-01     0.0000000000000000E+00 

CELLS 288 1152 

3 0 21 109 
3 109 52 0 
3 52 109 110 
3 110 51 52 
3 51 110 111 
3 111 50 51 
3 50 111 112 
3 112 49 50 
3 49 112 113 
3 113 48 49 
3 48 113 103 
3 103 11 48 
3 21 12 53 
3 53 109 21 
3 109 53 54 
3 54 110 109 
3 110 54 55 
3 55 111 110 
3 111 55 56 
3 56 112 111 
3 112 56 57 
3 57 113 112 
3 113 57 10 
3 10 103 113 
3 12 22 114 
3 114 53 12 
3 53 114 115 
3 115 54 53 
3 54 115 116 
3 116 55 54 
3 55 116 117 
3 117 56 55 
3 56 117 118 
3 118 57 56 
3 57 118 104 
3 104 10 57 
3 22 15 63 
3 63 114 22 
3 114 63 64 
3 64 115 114 
3 115 64 65 
3 65 116 115 
3 116 65 66 
3 66 117 116 
3 117 66 67 
3 67 118 117 
3 118 67 9 
3 9 104 118 
3 15 23 119 
3 119 63 15 
3 63 119 120 
3 120 64 63 
3 64 120 121 
3 121 65 64 
3 65 121 122 
3 122 66 65 
3 66 122 123 
3 123 67 66 
3 67 123 105 
3 105 9 67 
3 23 4 73 
3 73 119 23 
3 119 73 74 
3 74 120 119 
3 120 74 75 
3 75 121 120 
3 121 75 76 
3 76 122 121 
3 122 76 77 
3 77 123 122 
3 123 77 20 
3 20 105 123 
3 4 24 124 
3 124 73 4 
3 73 124 125 
3 125 74 73 
3 74 125 126 
3 126 75 74 
3 75 126 127 
3 127 76 75 
3 76 127 128 
3 128 77 76 
3 77 128 106 
3 106 20 77 
3 24 16 83 
3 83 124 24 
3 124 83 84 
3 84 125 124 
3 125 84 85 
3 85 126 125 
3 126 85 86 
3 86 127 126 
3 127 86 87 
3 87 128 127 
3 128 87 8 
3 8 106 128 
3 16 25 129 
3 129 83 16 
3 83 129 130 
3 130 84 83 
3 84 130 131 
3 131 85 84 
3 85 131 132 
3 132 86 85 
3 86 132 133 
3 133 87 86 
3 87 133 107 
3 107 8 87 
3 25 19 93 
3 93 129 25 
3 129 93 94 
3 94 130 129 
3 130 94 95 
3 95 131 130 
3 131 95 96 
3 96 132 131 
3 132 96 97 
3 97 133 132 
3 133 97 7 
3 7 107 133 
3 19 26 134 
3 134 93 19 
3 93 134 135 
3 135 94 93 
3 94 135 136 
3 136 95 94 
3 95 136 137 
3 137 96 95 
3 96 137 138 
3 138 97 96 
3 97 138 108 
3 108 7 97 
3 26 1 27 
3 27 134 26 
3 134 27 28 
3 28 135 134 
3 135 28 29 
3 29 136 135 
3 136 29 30 
3 30 137 136 
3 137 30 31 
3 31 138 137 
3 138 31 6 
3 6 108 138 
3 11 103 139 
3 139 47 11 
3 47 139 140 
3 140 46 47 
3 46 140 141 
3 141 45 46 
3 45 141 142 
3 142 44 45 
3 44 142 143 
3 143 43 44 
3 43 143 42 
3 42 3 43 
3 103 10 58 
3 58 139 103 
3 139 58 59 
3 59 140 139 
3 140 59 60 
3 60 141 140 
3 141 60 61 
3 61 142 141 
3 142 61 62 
3 62 143 142 
3 143 62 13 
3 13 42 143 
3 10 104 144 
3 144 58 10 
3 58 144 145 
3 145 59 58 
3 59 145 146 
3 146 60 59 
3 60 146 147 
3 147 61 60 
3 61 147 148 
3 148 62 61 
3 62 148 41 
3 41 13 62 
3 104 9 68 
3 68 144 104 
3 144 68 69 
3 69 145 144 
3 145 69 70 
3 70 146 145 
3 146 70 71 
3 71 147 146 
3 147 71 72 
3 72 148 147 
3 148 72 14 
3 14 41 148 
3 9 105 149 
3 149 68 9 
3 68 149 150 
3 150 69 68 
3 69 150 151 
3 151 70 69 
3 70 151 152 
3 152 71 70 
3 71 152 153 
3 153 72 71 
3 72 153 40 
3 40 14 72 
3 105 20 78 
3 78 149 105 
3 149 78 79 
3 79 150 149 
3 150 79 80 
3 80 151 150 
3 151 80 81 
3 81 152 151 
3 152 81 82 
3 82 153 152 
3 153 82 5 
3 5 40 153 
3 20 106 154 
3 154 78 20 
3 78 154 155 
3 155 79 78 
3 79 155 156 
3 156 80 79 
3 80 156 157 
3 157 81 80 
3 81 157 158 
3 158 82 81 
3 82 158 39 
3 39 5 82 
3 106 8 88 
3 88 154 106 
3 154 88 89 
3 89 155 154 
3 155 89 90 
3 90 156 155 
3 156 90 91 
3 91 157 156 
3 157 91 92 
3 92 158 157 
3 158 92 17 
3 17 39 158 
3 8 107 159 
3 159 88 8 
3 88 159 160 
3 160 89 88 
3 89 160 161 
3 161 90 89 
3 90 161 162 
3 162 91 90 
3 91 162 163 
3 163 92 91 
3 92 163 38 
3 38 17 92 
3 107 7 98 
3 98 159 107 
3 159 98 99 
3 99 160 159 
3 160 99 100 
3 100 161 160 
3 161 100 101 
3 101 162 161 
3 162 101 102 
3 102 163 162 
3 163 102 18 
3 18 38 163 
3 7 108 164 
3 164 98 7 
3 98 164 165 
3 165 99 98 
3 99 165 166 
3 166 100 99 
3 100 166 167 
3 167 101 100 
3 101 167 168 
3 168 102 101 
3 102 168 37 
3 37 18 102 
3 108 6 32 
3 32 164 108 
3 164 32 33 
3 33 165 164 
3 165 33 34 
3 34 166 165 
3 166 34 35 
3 35 167 166 
3 167 35 36 
3 36 168 167 
3 168 36 2 
3 2 37 168 

CELL_TYPES 288 

5 
5 
5 
5 
5 
5 
5 
5 
5 
5 
5 
5 
5 
5 
5 
5 
5 
5 
5 
5 
5 
5 
5 
5 
5 
5 
5 
5 
5 
5 
5 
5 
5 
5 
5 
5 
5 
5 
5 
5 
5 
5 
5 
5 
5 
5 
5 
5 
5 
5 
5 
5 
5 
5 
5 
5 
5 
5 
5 
5 
5 
5 
5 
5 
5 
5 
5 
5 
5 
5 
5 
5 
5 
5 
5 
5 
5 
5 
5 
5 
5 
5 
5 
5 
5 
5 
5 
5 
5 
5 
5 
5 
5 
5 
5 
5 
5 
5 
5 
5 
5 
5 
5 
5 
5 
5 
5 
5 
5 
5 
5 
5 
5 
5 
5 
5 
5 
5 
5 
5 
5 
5 
5 
5 
5 
5 
5 
5 
5 
5 
5 
5 
5 
5 
5 
5 
5 
5 
5 
5 
5 
5 
5 
5 
5 
5 
5 
5 
5 
5 
5 
5 
5 
5 
5 
5 
5 
5 
5 
5 
5 
5 
5 
5 
5 
5 
5 
5 
5 
5 
5 
5 
5 
5 
5 
5 
5 
5 
5 
5 
5 
5 
5 
5 
5 
5 
5 
5 
5 
5 
5 
5 
5 
5 
5 
5 
5 
5 
5 
5 
5 
5 
5 
5 
5 
5 
5 
5 
5 
5 
5 
5 
5 
5 
5 
5 
5 
5 
5 
5 
5 
5 
5 
5 
5 
5 
5 
5 
5 
5 
5 
5 
5 
5 
5 
5 
5 
5 
5 
5 
5 
5 
5 
5 
5 
5 
5 
5 
5 
5 
5 
5 
5 
5 
5 
5 
5 
5 
5 
5 
5 
5 
5 
5 
5 
5 
5 
5 
5 
5 
5 
5 
5 
5 
5 
5 
5 
5 
5 
5 
5 
5 
5 
5 
5 
5 
5 
5 

CELL_DATA 288 
SCALARS Pressure float 1 
LOOKUP_TABLE default 

    4.3412908611935802E-03 
    7.1526676744692354E-03 
    2.7267400102874643E-02 
    1.8604310506470923E-02 
    5.0060998084310450E-02 
    2.9922765010904403E-02 
    7.2427738803467756E-02 
    4.0879110859471157E-02 
    9.3694180927389167E-02 
    5.1133592048546644E-02 
    1.1316793591821946E-01 
    6.0666133333841715E-02 
    1.5471812071428960E-02 
    2.9889291443994149E-02 
    7.1578881052124677E-02 
    7.4262430978832658E-02 
    1.2697237024003630E-01 
    1.1916964459925015E-01 
    1.8193910370879893E-01 
    1.6356098492950855E-01 
    2.3466012287049970E-01 
    2.0488467342469358E-01 
    2.8208490732981867E-01 
    2.3872068112209952E-01 
    6.0643743480563235E-02 
    8.1259036351212302E-02 
    2.0830261697263602E-01 
    1.8484053481907003E-01 
    3.4274213368336376E-01 
    2.8133585694504154E-01 
    4.5527069219647248E-01 
    3.6665378794276965E-01 
    5.4254509624850744E-01 
    4.3957065855939970E-01 
    6.0466821101885382E-01 
    4.9805079067605723E-01 
    1.1614799389413571E-01 
    1.7857123671400929E-01 
    4.0704804902925162E-01 
    4.0893225302607411E-01 
    6.2639098261581372E-01 
    5.8075844966893453E-01 
    7.4911122756028092E-01 
    6.8311692703464999E-01 
    7.7753148454322574E-01 
    7.2144752137993773E-01 
    7.2279712995623302E-01 
    7.1142762116005587E-01 
    1.0526571052580355E-01 
    2.2841689276660107E-01 
    4.3277930493081135E-01 
    5.4608353781221153E-01 
    6.9403584680283070E-01 
    7.6571823790983939E-01 
    8.5615584496678654E-01 
    8.6642885324669772E-01 
    9.0975734339350012E-01 
    8.5536499044997183E-01 
    8.6275257852015874E-01 
    7.4010495416398037E-01 
    8.4528066884495170E-02 
    1.9410192815408595E-01 
    3.6012494733367301E-01 
    4.8000261234595987E-01 
    6.0418281076411651E-01 
    7.1506922984119259E-01 
    7.9595579952697304E-01 
    8.7591896753103482E-01 
    9.1906927225694135E-01 
    9.5125862853362153E-01 
    9.6762626678460506E-01 
    9.4442114058904714E-01 
    5.8236031065020816E-02 
    1.4402309503403346E-01 
    2.5782767448392291E-01 
    3.6727572879322706E-01 
    4.4756262136828928E-01 
    5.7014171208031483E-01 
    6.1780211685997999E-01 
    7.4162335886796249E-01 
    7.6108897323601232E-01 
    8.6954062603778348E-01 
    8.6992999459385456E-01 
    9.4252648250422288E-01 
    3.0565216441503375E-02 
    8.6466793752940932E-02 
    1.4327789149439579E-01 
    2.2889460648418034E-01 
    2.5499324724691774E-01 
    3.6747177783306983E-01 
    3.6303326829678811E-01 
    5.0176504437060876E-01 
    4.6752012418938393E-01 
    6.0921685074273391E-01 
    5.5060004206682112E-01 
    7.3307333933940821E-01 
    6.3490550509562566E-02 
    9.2110951173258446E-02 
    2.0869543773026483E-01 
    2.0822575710230526E-01 
    3.4171446337093475E-01 
    3.1568058708815855E-01 
    4.5460770381058707E-01 
    4.1155683558244743E-01 
    5.5174848536255872E-01 
    4.9941319624472502E-01 
    6.2169021031110938E-01 
    5.7271602596553473E-01 
    7.8257502937141815E-02 
    1.3975375916644334E-01 
    2.6137508620343064E-01 
    3.0748337819482213E-01 
    4.0358351357459504E-01 
    4.3998447005821495E-01 
    4.9930497979908206E-01 
    5.3586371416420397E-01 
    5.4698242410831932E-01 
    5.9508983947997951E-01 
    5.4459202896081127E-01 
    6.2023986269216591E-01 
    4.9126198346449587E-02 
    1.1749126598255291E-01 
    1.7339898671326662E-01 
    2.5449936763674968E-01 
    2.6464223949676147E-01 
    3.5093501616715000E-01 
    3.1883845451486026E-01 
    4.0193466908116304E-01 
    3.3396161738763774E-01 
    4.0558373009807963E-01 
    3.0132207362707442E-01 
    3.4623930967186828E-01 
    1.6428849126402113E-02 
    5.5047850444766101E-02 
    5.1176730708220430E-02 
    1.0833728097350023E-01 
    7.3567163964991369E-02 
    1.4902392998542235E-01 
    8.6012938755585980E-02 
    1.6943540715294836E-01 
    8.7096356956741713E-02 
    1.6814489527641760E-01 
    7.5233718066627847E-02 
    1.4156647573334377E-01 
    1.4213184569347204E-01 
    7.3085940752266029E-02 
    1.7110649936996744E-01 
    8.5326472650809129E-02 
    1.7152878799528226E-01 
    8.3776872365549607E-02 
    1.4734626254197211E-01 
    7.0452779101995447E-02 
    1.0373646739338430E-01 
    4.7714068419497761E-02 
    4.2525630682400756E-02 
    1.7150353781839676E-02 
    3.4919651656118383E-01 
    3.0583513350182812E-01 
    4.1945636682578380E-01 
    3.4451724262630562E-01 
    4.1778807395039241E-01 
    3.2774304195029030E-01 
    3.5877895336309934E-01 
    2.6671500449103497E-01 
    2.5534470033793377E-01 
    1.7106020441268452E-01 
    1.1953904303562163E-01 
    4.6144913996686486E-02 
    6.3566448836334855E-01 
    5.5610009224624513E-01 
    6.1784504350177705E-01 
    5.6729574505073421E-01 
    5.5181367671300297E-01 
    5.1398137710521896E-01 
    4.4714587441462705E-01 
    4.0947493317926725E-01 
    3.0994162328712821E-01 
    2.6318523583632147E-01 
    1.4427857222541213E-01 
    8.0059393169737328E-02 
    6.1642940403712709E-01 
    6.6983614376664236E-01 
    5.2183978276062459E-01 
    5.7599613992386955E-01 
    4.2600401720039777E-01 
    4.6852102790319078E-01 
    3.2493417416331644E-01 
    3.4973508870711495E-01 
    2.1489707822012308E-01 
    2.1489134613592870E-01 
    9.6383704436327391E-02 
    6.6657480325685622E-02 
    7.5094949942625078E-01 
    6.1243000080634913E-01 
    6.6943401904004052E-01 
    4.9479019726556317E-01 
    5.2641185550487390E-01 
    3.7950210120607586E-01 
    3.8241222659743657E-01 
    2.6689824822093888E-01 
    2.3928265751770442E-01 
    1.5091866467130791E-01 
    9.2183272392589666E-02 
    3.3404180172717166E-02 
    9.4794549110398640E-01 
    8.7857542273630440E-01 
    8.7956799069004965E-01 
    7.8553903302063910E-01 
    7.6187297399707044E-01 
    6.4295118107178306E-01 
    5.9043342283816824E-01 
    4.6405385496921009E-01 
    3.8107394661713256E-01 
    2.6842461107249793E-01 
    1.5258871892017031E-01 
    6.2982049306161178E-02 
    9.3725120227749470E-01 
    9.6655165889137451E-01 
    9.5023444326240036E-01 
    9.2350209615556289E-01 
    8.8214849906886117E-01 
    8.0874486587368388E-01 
    7.2840030700708491E-01 
    6.1978178293727115E-01 
    4.9415347216983058E-01 
    3.7220160833197474E-01 
    2.0491016671261436E-01 
    9.0854899788219770E-02 
    7.0801400710515949E-01 
    8.4675464134106815E-01 
    8.4120091927547647E-01 
    9.0311751801562201E-01 
    8.6182771630339661E-01 
    8.5842591995605644E-01 
    7.7033967935473713E-01 
    7.0398428455185669E-01 
    5.5757228077013621E-01 
    4.4427810588686178E-01 
    2.3972987435406207E-01 
    1.1232877254471771E-01 
    7.1380524822859770E-01 
    7.0561691336082955E-01 
    7.2169073362882086E-01 
    7.7572599701120726E-01 
    6.8746906918872597E-01 
    7.5302321564105723E-01 
    5.8782521736277338E-01 
    6.3401453155491594E-01 
    4.1725873015091347E-01 
    4.1624083271061529E-01 
    1.8497794889546454E-01 
    1.2267583716868649E-01 
    4.9806753764007711E-01 
    6.0508406267375903E-01 
    4.4189575380614310E-01 
    5.4490320239292478E-01 
    3.6990878996570181E-01 
    4.5920677555349659E-01 
    2.8453292961916060E-01 
    3.4715677858547556E-01 
    1.8729220842146571E-01 
    2.1190584543424310E-01 
    8.2667537043762576E-02 
    6.3101398346879459E-02 
    2.3862172543845334E-01 
    2.8317075869982444E-01 
    2.0584308342329655E-01 
    2.3628915172190620E-01 
    1.6453876664938871E-01 
    1.8357199958308024E-01 
    1.1990480344836543E-01 
    1.2815678511607495E-01 
    7.4635865321082850E-02 
    7.2219497980940961E-02 
    3.0066692490505569E-02 
    1.5930477311823170E-02 
    6.1116760856312902E-02 
    1.1390647336199150E-01 
    5.1711243528888541E-02 
    9.4566896065311906E-02 
    4.1413292349230600E-02 
    7.3178353966393703E-02 
    3.0321001653584232E-02 
    5.0573972132991328E-02 
    1.8840051081680118E-02 
    2.7537749116255478E-02 
    7.2592617531838403E-03 
    4.4811593227880551E-03 

