# vtk DataFile Version 2.0
Pressure Field Data 
ASCII 
DATASET UNSTRUCTURED_GRID 

POINTS 4225 float 

    0.0000000000000000E+00     0.0000000000000000E+00     0.0000000000000000E+00 
    1.0000000000000000E+00     0.0000000000000000E+00     0.0000000000000000E+00 
    1.0000000000000000E+00     1.0000000000000000E+00     0.0000000000000000E+00 
    0.0000000000000000E+00     1.0000000000000000E+00     0.0000000000000000E+00 
    1.5624999999970159E-02     0.0000000000000000E+00     0.0000000000000000E+00 
    3.1249999999940450E-02     0.0000000000000000E+00     0.0000000000000000E+00 
    4.6874999999906693E-02     0.0000000000000000E+00     0.0000000000000000E+00 
    6.2499999999872928E-02     0.0000000000000000E+00     0.0000000000000000E+00 
    7.8124999999848316E-02     0.0000000000000000E+00     0.0000000000000000E+00 
    9.3749999999823710E-02     0.0000000000000000E+00     0.0000000000000000E+00 
    1.0937499999979840E-01     0.0000000000000000E+00     0.0000000000000000E+00 
    1.2499999999977310E-01     0.0000000000000000E+00     0.0000000000000000E+00 
    1.4062499999972891E-01     0.0000000000000000E+00     0.0000000000000000E+00 
    1.5624999999968461E-01     0.0000000000000000E+00     0.0000000000000000E+00 
    1.7187499999963901E-01     0.0000000000000000E+00     0.0000000000000000E+00 
    1.8749999999959341E-01     0.0000000000000000E+00     0.0000000000000000E+00 
    2.0312499999954781E-01     0.0000000000000000E+00     0.0000000000000000E+00 
    2.1874999999950220E-01     0.0000000000000000E+00     0.0000000000000000E+00 
    2.3437499999945660E-01     0.0000000000000000E+00     0.0000000000000000E+00 
    2.4999999999941089E-01     0.0000000000000000E+00     0.0000000000000000E+00 
    2.6562499999936529E-01     0.0000000000000000E+00     0.0000000000000000E+00 
    2.8124999999931971E-01     0.0000000000000000E+00     0.0000000000000000E+00 
    2.9687499999927408E-01     0.0000000000000000E+00     0.0000000000000000E+00 
    3.1249999999922851E-01     0.0000000000000000E+00     0.0000000000000000E+00 
    3.2812499999918288E-01     0.0000000000000000E+00     0.0000000000000000E+00 
    3.4374999999913730E-01     0.0000000000000000E+00     0.0000000000000000E+00 
    3.5937499999909173E-01     0.0000000000000000E+00     0.0000000000000000E+00 
    3.7499999999904610E-01     0.0000000000000000E+00     0.0000000000000000E+00 
    3.9062499999900052E-01     0.0000000000000000E+00     0.0000000000000000E+00 
    4.0624999999895489E-01     0.0000000000000000E+00     0.0000000000000000E+00 
    4.2187499999890932E-01     0.0000000000000000E+00     0.0000000000000000E+00 
    4.3749999999886358E-01     0.0000000000000000E+00     0.0000000000000000E+00 
    4.5312499999881800E-01     0.0000000000000000E+00     0.0000000000000000E+00 
    4.6874999999877243E-01     0.0000000000000000E+00     0.0000000000000000E+00 
    4.8437499999873218E-01     0.0000000000000000E+00     0.0000000000000000E+00 
    4.9999999999869210E-01     0.0000000000000000E+00     0.0000000000000000E+00 
    5.1562499999872791E-01     0.0000000000000000E+00     0.0000000000000000E+00 
    5.3124999999876366E-01     0.0000000000000000E+00     0.0000000000000000E+00 
    5.4687499999880484E-01     0.0000000000000000E+00     0.0000000000000000E+00 
    5.6249999999884603E-01     0.0000000000000000E+00     0.0000000000000000E+00 
    5.7812499999888733E-01     0.0000000000000000E+00     0.0000000000000000E+00 
    5.9374999999892852E-01     0.0000000000000000E+00     0.0000000000000000E+00 
    6.0937499999896971E-01     0.0000000000000000E+00     0.0000000000000000E+00 
    6.2499999999901090E-01     0.0000000000000000E+00     0.0000000000000000E+00 
    6.4062499999905220E-01     0.0000000000000000E+00     0.0000000000000000E+00 
    6.5624999999909339E-01     0.0000000000000000E+00     0.0000000000000000E+00 
    6.7187499999913458E-01     0.0000000000000000E+00     0.0000000000000000E+00 
    6.8749999999917577E-01     0.0000000000000000E+00     0.0000000000000000E+00 
    7.0312499999921696E-01     0.0000000000000000E+00     0.0000000000000000E+00 
    7.1874999999925815E-01     0.0000000000000000E+00     0.0000000000000000E+00 
    7.3437499999929945E-01     0.0000000000000000E+00     0.0000000000000000E+00 
    7.4999999999934064E-01     0.0000000000000000E+00     0.0000000000000000E+00 
    7.6562499999938183E-01     0.0000000000000000E+00     0.0000000000000000E+00 
    7.8124999999942302E-01     0.0000000000000000E+00     0.0000000000000000E+00 
    7.9687499999946432E-01     0.0000000000000000E+00     0.0000000000000000E+00 
    8.1249999999950551E-01     0.0000000000000000E+00     0.0000000000000000E+00 
    8.2812499999954670E-01     0.0000000000000000E+00     0.0000000000000000E+00 
    8.4374999999958789E-01     0.0000000000000000E+00     0.0000000000000000E+00 
    8.5937499999962907E-01     0.0000000000000000E+00     0.0000000000000000E+00 
    8.7499999999967026E-01     0.0000000000000000E+00     0.0000000000000000E+00 
    8.9062499999971156E-01     0.0000000000000000E+00     0.0000000000000000E+00 
    9.0624999999975275E-01     0.0000000000000000E+00     0.0000000000000000E+00 
    9.2187499999979394E-01     0.0000000000000000E+00     0.0000000000000000E+00 
    9.3749999999983513E-01     0.0000000000000000E+00     0.0000000000000000E+00 
    9.5312499999987643E-01     0.0000000000000000E+00     0.0000000000000000E+00 
    9.6874999999991762E-01     0.0000000000000000E+00     0.0000000000000000E+00 
    9.8437499999995881E-01     0.0000000000000000E+00     0.0000000000000000E+00 
    1.0000000000000000E+00     1.5624999999970159E-02     0.0000000000000000E+00 
    1.0000000000000000E+00     3.1249999999940450E-02     0.0000000000000000E+00 
    1.0000000000000000E+00     4.6874999999906693E-02     0.0000000000000000E+00 
    1.0000000000000000E+00     6.2499999999872928E-02     0.0000000000000000E+00 
    1.0000000000000000E+00     7.8124999999848316E-02     0.0000000000000000E+00 
    1.0000000000000000E+00     9.3749999999823710E-02     0.0000000000000000E+00 
    1.0000000000000000E+00     1.0937499999979840E-01     0.0000000000000000E+00 
    1.0000000000000000E+00     1.2499999999977310E-01     0.0000000000000000E+00 
    1.0000000000000000E+00     1.4062499999972891E-01     0.0000000000000000E+00 
    1.0000000000000000E+00     1.5624999999968461E-01     0.0000000000000000E+00 
    1.0000000000000000E+00     1.7187499999963901E-01     0.0000000000000000E+00 
    1.0000000000000000E+00     1.8749999999959341E-01     0.0000000000000000E+00 
    1.0000000000000000E+00     2.0312499999954781E-01     0.0000000000000000E+00 
    1.0000000000000000E+00     2.1874999999950220E-01     0.0000000000000000E+00 
    1.0000000000000000E+00     2.3437499999945660E-01     0.0000000000000000E+00 
    1.0000000000000000E+00     2.4999999999941089E-01     0.0000000000000000E+00 
    1.0000000000000000E+00     2.6562499999936529E-01     0.0000000000000000E+00 
    1.0000000000000000E+00     2.8124999999931971E-01     0.0000000000000000E+00 
    1.0000000000000000E+00     2.9687499999927408E-01     0.0000000000000000E+00 
    1.0000000000000000E+00     3.1249999999922851E-01     0.0000000000000000E+00 
    1.0000000000000000E+00     3.2812499999918288E-01     0.0000000000000000E+00 
    1.0000000000000000E+00     3.4374999999913730E-01     0.0000000000000000E+00 
    1.0000000000000000E+00     3.5937499999909173E-01     0.0000000000000000E+00 
    1.0000000000000000E+00     3.7499999999904610E-01     0.0000000000000000E+00 
    1.0000000000000000E+00     3.9062499999900052E-01     0.0000000000000000E+00 
    1.0000000000000000E+00     4.0624999999895489E-01     0.0000000000000000E+00 
    1.0000000000000000E+00     4.2187499999890932E-01     0.0000000000000000E+00 
    1.0000000000000000E+00     4.3749999999886358E-01     0.0000000000000000E+00 
    1.0000000000000000E+00     4.5312499999881800E-01     0.0000000000000000E+00 
    1.0000000000000000E+00     4.6874999999877243E-01     0.0000000000000000E+00 
    1.0000000000000000E+00     4.8437499999873218E-01     0.0000000000000000E+00 
    1.0000000000000000E+00     4.9999999999869210E-01     0.0000000000000000E+00 
    1.0000000000000000E+00     5.1562499999872791E-01     0.0000000000000000E+00 
    1.0000000000000000E+00     5.3124999999876366E-01     0.0000000000000000E+00 
    1.0000000000000000E+00     5.4687499999880484E-01     0.0000000000000000E+00 
    1.0000000000000000E+00     5.6249999999884603E-01     0.0000000000000000E+00 
    1.0000000000000000E+00     5.7812499999888733E-01     0.0000000000000000E+00 
    1.0000000000000000E+00     5.9374999999892852E-01     0.0000000000000000E+00 
    1.0000000000000000E+00     6.0937499999896971E-01     0.0000000000000000E+00 
    1.0000000000000000E+00     6.2499999999901090E-01     0.0000000000000000E+00 
    1.0000000000000000E+00     6.4062499999905220E-01     0.0000000000000000E+00 
    1.0000000000000000E+00     6.5624999999909339E-01     0.0000000000000000E+00 
    1.0000000000000000E+00     6.7187499999913458E-01     0.0000000000000000E+00 
    1.0000000000000000E+00     6.8749999999917577E-01     0.0000000000000000E+00 
    1.0000000000000000E+00     7.0312499999921696E-01     0.0000000000000000E+00 
    1.0000000000000000E+00     7.1874999999925815E-01     0.0000000000000000E+00 
    1.0000000000000000E+00     7.3437499999929945E-01     0.0000000000000000E+00 
    1.0000000000000000E+00     7.4999999999934064E-01     0.0000000000000000E+00 
    1.0000000000000000E+00     7.6562499999938183E-01     0.0000000000000000E+00 
    1.0000000000000000E+00     7.8124999999942302E-01     0.0000000000000000E+00 
    1.0000000000000000E+00     7.9687499999946432E-01     0.0000000000000000E+00 
    1.0000000000000000E+00     8.1249999999950551E-01     0.0000000000000000E+00 
    1.0000000000000000E+00     8.2812499999954670E-01     0.0000000000000000E+00 
[...]
CELL_DATA 4096 
SCALARS Pressure float 1 
LOOKUP_TABLE default 

    4.7426490011126532E-04 
    2.8399341607432405E-04 
    1.7294464222672445E-04 
    1.4529377780370112E-04 
    5.4620470052668679E-05 
    1.0004201549573821E-04 
    6.0718548053451116E-05 
    2.5781197712682058E-05 
    1.4817326209559667E-05 
    3.9695037704845504E-05 
    2.7930593450520291E-05 
    9.8174543543549930E-06 
    7.1632473463978386E-06 
    2.0943096185277454E-05 
    1.6554882318331465E-05 
    5.5913769401172431E-06 
    4.5911192385617028E-06 
    1.3674412121744695E-05 
    1.1726985944093826E-05 
    3.9267519245100857E-06 
    3.4774221262523497E-06 
    1.0394276845460126E-05 
    9.4923397284674138E-06 
    3.1763899412950991E-06 
    2.9851904370659099E-06 
    8.9121476500864105E-06 
    8.5893947572301954E-06 
    2.8815998343034721E-06 
    2.8536466878392730E-06 
    8.4886805176154212E-06 
    8.5954277695421410E-06 
    2.8966816687514552E-06 
    3.0121081699974184E-06 
    8.9122427375798452E-06 
    9.4584235394989946E-06 
    3.2072827886864275E-06 
    3.4964740445175835E-06 
    1.0272279036271925E-05 
    1.1416783429751831E-05 
    3.9031194258853930E-06 
    4.4640616634339381E-06 
    1.2990086365682885E-05 
    1.5144155788071600E-05 
    5.2372539505185500E-06 
    6.3161161634184282E-06 
    1.8118035100656016E-05 
    2.2299222197652568E-05 
    7.8578029976128505E-06 
    1.0143308332821732E-05 
    2.8341822511102066E-05 
    3.7405441547733176E-05 
    1.3718520142091961E-05 
    1.9765961139839305E-05 
    5.1661124575552719E-05 
    7.5401999403368336E-05 
    3.1213794449591603E-05 
    5.6456756187373003E-05 
    1.1749971876273690E-04 
    1.9652089490573843E-04 
    1.2314257977319443E-04 
    3.3330746673687628E-04 
    3.4872653452566738E-04 
    6.2243889911517414E-04 
    1.0964826484807233E-03 
    1.0966804761007864E-03 
    6.4712857365822885E-04 
    3.8886636261636909E-04 
    3.3305466141886342E-04 
    1.2262531122164688E-04 
    2.1975395732276581E-04 
    1.2857466738402934E-04 
    5.5706454229920155E-05 
    3.0230665314157079E-05 
    7.9719709105141590E-05 
    5.2180901978005068E-05 
    1.8541640094404954E-05 
    1.2240188703493970E-05 
    3.5557538801356259E-05 
    2.4798410353632505E-05 
    8.3941986517288569E-06 
    5.8168135934622001E-06 
    1.7367314049998583E-05 
    1.1920051337099835E-05 
    3.9570549006384681E-06 
    2.5277538835410951E-06 
    7.6991208501908659E-06 
    4.2496273149339459E-06 
    1.3641259046792698E-06 
    3.6316163409821911E-07 
    1.2795532065013049E-06 
    1.4130171241966138E-06 
    5.4531845705696469E-07 
    1.4139916277855491E-06 
    3.9805949048066225E-06 
    6.5511900158021774E-06 
    2.2871261422530154E-06 
    3.2068793536232931E-06 
    9.2458054132826817E-06 
    1.2193225317425060E-05 
    4.2186614828132463E-06 
    5.3769332510889001E-06 
    1.5545686967044503E-05 
    1.9498944237028581E-05 
    6.7528567484487212E-06 
    8.4459292022387444E-06 
    2.4321848311359417E-05 
    3.0403909739185053E-05 
    1.0603397543995641E-05 
    1.3455175352561355E-05 
    3.8337012665312642E-05 
    4.9063538920535166E-05 
    1.7381316448350503E-05 
    2.3053462563815685E-05 
    6.4159518695205975E-05 
    8.6404718549371040E-05 
    3.1761230788962536E-05 
    4.6254073202245394E-05 
    1.2098905851587460E-04 
    1.7817118334861881E-04 
    7.3189501603954099E-05 
    1.3113271679032756E-04 
    2.7924816115998397E-04 
    4.6955725224728795E-04 
    2.7948156131318846E-04 
    7.3178167233445279E-04 
    8.4242990314731259E-04 
    1.5532310969297303E-03 
    2.3268845041173325E-03 
    1.9574626367635517E-04 
    1.4891831688679247E-04 
    1.3102925148800182E-04 
    1.5376570513048193E-04 
    1.1001773256147374E-04 
    1.0602651137503472E-04 
    8.3001151204520340E-05 
    7.7665093734857749E-05 
    5.6049534027380332E-05 
    6.4796795420818398E-05 
    5.1294380792654692E-05 
    4.1935231086753788E-05 
    3.2636506674954546E-05 
    4.1516991534429337E-05 
    3.4474976329690321E-05 
    2.6385046774102250E-05 
    2.2094054381582851E-05 
    2.9394912576030663E-05 
    2.5726616095234078E-05 
    1.9105022574628094E-05 
    1.7016085440246798E-05 
    2.3094044768079414E-05 
    2.1245135753744648E-05 
    1.5578969152940658E-05 
    1.4639544276384697E-05 
    2.0013902827464847E-05 
    1.9294634920008491E-05 
    1.4103757018268936E-05 
    1.3918373785060112E-05 
    1.9025545502593388E-05 
    1.9179054373097415E-05 
    1.4060458072506776E-05 
    1.4532419911006400E-05 
    1.9757036965550867E-05 
    2.0789917285490844E-05 
    1.5361187475804172E-05 
    1.6601068649535478E-05 
    2.2339524035963620E-05 
    2.4505916980999132E-05 
    1.8340900703073260E-05 
    2.0716996272263088E-05 
    2.7439613823787568E-05 
    3.1361236234594969E-05 
    2.3935334778180106E-05 
    2.8308753173611478E-05 
    3.6592469164986596E-05 
    4.3603568411043625E-05 
    3.4320468616400035E-05 
    4.2733429891583796E-05 
    5.3085234397620695E-05 
    6.6051741032246980E-05 
    5.4781039573903456E-05 
    7.2495804881000936E-05 
    8.3972784167940517E-05 
    1.0888731062763668E-04 
    9.9246738930247602E-05 
    1.4047272682304879E-04 
    1.4331347598517397E-04 
    1.8938762677667142E-04 
    2.0405507168685943E-04 
    2.9746954341369758E-04 
    2.4581746549046102E-04 
    3.0007070268034397E-04 
    4.1099759982810014E-04 
    4.3046595667295406E-04 
    3.1296902296951146E-04 
    2.7410887704526488E-04 
    3.3511961155330283E-04 
    2.3453438589626785E-04 
    2.1741656412110899E-04 
    1.6449676204821628E-04 
    1.5981555692690108E-04 
    1.0961416848065397E-04 
    1.2219568198013064E-04 
    9.0357930451645530E-05 
    7.6495565487277872E-05 
    5.4263090409456538E-05 
    6.6774884787790256E-05 
    4.9173256588375125E-05 
    3.8827645347794260E-05 
    2.7665809640531336E-05 
    3.5757974382377711E-05 
    2.5233145430014758E-05 
    1.9234298441972442E-05 
    1.2571794066218445E-05 
    1.6689392850821605E-05 
    9.4866296800333316E-06 
    7.0589619367567025E-06 
    2.2779607338208052E-06 
    3.1634568449234735E-06 
    2.6271399926613981E-06 
    2.0702263259231302E-06 
    6.2165190932716996E-06 
    8.1625275298868871E-06 
    1.3682806492720800E-05 
    1.0356723933124812E-05 
    1.4675827283205933E-05 
    1.9416000174299342E-05 
    2.5600551991189491E-05 
    1.9368664703200977E-05 
    2.4661682830995346E-05 
    3.2508502471717549E-05 
    4.0473365196191935E-05 
    3.0839676814053973E-05 
    3.8283667632921237E-05 
    4.9927105238989355E-05 
    6.1452962759833696E-05 
    4.7528404349517217E-05 
    5.9355108676939494E-05 
    7.5863464082281951E-05 
    9.4317789987474754E-05 
    7.4945962554195944E-05 
    9.6149223927533001E-05 
    1.1849701081745323E-04 
    1.5085615710974665E-04 
    1.2594048474090513E-04 
    1.6922280638320686E-04 
    1.9494906888040120E-04 
    2.5572128677664452E-04 
    2.3415356842226842E-04 
    3.3403278055055274E-04 
    3.3933322262158505E-04 
    4.5114427102244115E-04 
    4.8860495361591205E-04 
    7.1832877509181436E-04 
    5.8829596876730506E-04 
    7.1975635154863937E-04 
    1.0057757318517879E-03 
    1.2114215359737557E-04 
    1.0319532556213318E-04 
    9.8688549265091297E-05 
    1.1259723389489551E-04 
    9.8076762677479223E-05 
    8.9931779758245511E-05 
    7.9378416272035679E-05 
    8.2436508253458385E-05 
    6.8367395861024249E-05 
    6.8900693398710189E-05 
    5.9515188216785475E-05 
    5.6784475479076946E-05 
    4.7674476543413391E-05 
    5.1595534292125933E-05 
    4.5152956487548579E-05 
    4.0677439571368268E-05 
    3.5374291306844441E-05 
    4.0039078530007544E-05 
    3.6060731357423492E-05 
    3.1397730952953395E-05 
    2.8460060225832251E-05 
    3.3034562717304539E-05 
    3.0807983602443301E-05 
    2.6349051561957992E-05 
    2.4914943103304665E-05 
    2.9264138865059408E-05 
    2.8320302265072428E-05 
    2.4057539543598239E-05 
    2.3716202702139810E-05 
    2.7924640933818523E-05 
    2.8053267576488849E-05 
    2.3863236763510542E-05 
    2.4500421660356153E-05 
    2.8708678445177327E-05 
    2.9919724883420429E-05 
    2.5658460551802875E-05 
    2.7399421696827631E-05 
    3.1743564593789131E-05 
    3.4269504618933411E-05 
    2.9822266799151009E-05 
    3.3072339761908154E-05 
    3.7625188687329114E-05 
    4.1984936069106027E-05 
    3.7355619434187304E-05 
    4.2959147664944908E-05 
    4.7580121578683077E-05 
    5.4709779162998018E-05 
    5.0278447065288390E-05 
    5.9851194691873388E-05 
    6.3747351259912932E-05 
    7.5132871086402986E-05 
    7.2390077658468499E-05 
    8.8791855172409839E-05 
    8.9328914389064096E-05 
    1.0669726216328002E-04 
    1.1006085871567706E-04 
    1.3700534864646841E-04 
    1.2722555532906910E-04 
    1.5001428604222156E-04 
    1.6942838780398262E-04 
    2.0441431498507967E-04 
    1.7250305517002573E-04 
    1.8977293184008204E-04 
    2.3365912134032385E-04 
    2.4203016903712182E-04 
    1.9524307120288853E-04 
    1.8630051731527431E-04 
    2.2441384674554143E-04 
    1.9192611984397701E-04 
    1.6680405533886500E-04 
    1.4249373154662237E-04 
    1.5606457296168941E-04 
    1.2323927240132093E-04 
    1.1778434244558156E-04 
    9.5090539883102565E-05 
    9.5674177671867255E-05 
    7.3392254240189914E-05 
    7.5311854245363463E-05 
    5.8484387991164510E-05 
    5.5579330673793947E-05 
    4.1259640828350541E-05 
    4.4253430444562980E-05 
    3.2141178677669302E-05 
    2.9556974392441759E-05 
    1.9760357988118926E-05 
    2.1673312565972935E-05 
    1.2426208369831215E-05 
    1.1313431547144148E-05 
    3.7815377282868212E-06 
    4.0355148902548876E-06 
    3.8119688774429505E-06 
    3.1828897788521715E-06 
    9.8703756283846644E-06 
    1.1392246769048597E-05 
    1.8959646617577874E-05 
    1.6539577754492996E-05 
    2.3438947189369230E-05 
    2.6762357810294901E-05 
    3.5058243750274443E-05 
    3.0827057559523752E-05 
    3.8993714944979274E-05 
    4.4131508784239770E-05 
    5.4311384615424174E-05 
    4.8284404158938088E-05 
    5.9130793861328357E-05 
    6.5993738509462219E-05 
    7.9666410616408001E-05 
    7.2090716229489260E-05 
    8.7901177091342930E-05 
    9.5937685928859651E-05 
    1.1556454306926867E-04 
    1.0754729898820869E-04 
    1.3234544074158805E-04 
    1.3947022969640344E-04 
    1.6872624916963730E-04 
    1.6402432999651495E-04 
    2.0474883497212382E-04 
    2.0444477403591677E-04 
    2.4747674337510794E-04 
    2.5693742231713834E-04 
    3.2252469135807260E-04 
    2.9773760407425520E-04 
    3.5292975601031173E-04 
    4.0096852870963318E-04 
    4.8493547403349879E-04 
    4.0657998225390735E-04 
    4.4618424580389338E-04 
    5.5326377554787420E-04 
    9.0835616964213273E-05 
    8.1907077452925137E-05 
    8.0341294504293614E-05 
    8.8260255010297328E-05 
    8.2749931987535774E-05 
    7.6732105799059980E-05 
    7.1730245410073223E-05 
    7.5550098446619529E-05 
    6.7844699945140974E-05 
    6.6063149343875693E-05 
    6.0333830670167288E-05 
    6.0460819113039577E-05 
    5.3852876980009512E-05 
    5.4951691375038081E-05 
    5.0147843448478113E-05 
    4.8201736928099592E-05 
    4.3524844037357013E-05 
    4.6022945706880591E-05 
    4.2596283569729110E-05 
    3.9759197026256743E-05 
    3.6813068986951691E-05 
    3.9843992194477096E-05 
    3.7724755651780129E-05 
    3.4594424525913325E-05 
    3.3024599739306382E-05 
    3.6195482988610195E-05 
    3.5220152558856910E-05 
    3.2044046092138956E-05 
    3.1614082729447546E-05 
    3.4774540851323366E-05 
    3.4848686031985210E-05 
    3.1717277277465428E-05 
    3.2357527316229096E-05 
    3.5448324766207406E-05 
    3.6595941249828456E-05 
    3.3560728904369341E-05 
    3.5376146741761261E-05 
    3.8331831841098563E-05 
    4.0715167734184377E-05 
    3.7878798881507691E-05 
    4.1172526795918429E-05 
    4.3824898162014847E-05 
    4.7759799227442556E-05 
    4.5393551108219299E-05 
    5.0713149231107479E-05 
    5.2636506105763203E-05 
    5.8583249924915037E-05 
    5.7337325184647625E-05 
    6.5498551823139906E-05 
    6.5725691154483457E-05 
    7.4159077155577791E-05 
    7.5431077499743537E-05 
    8.7314985970365910E-05 
    8.3898990992814504E-05 
    9.4802073332012071E-05 
    1.0116704955898115E-04 
    1.1665305679287030E-04 
    1.0645320683622117E-04 
    1.1803385669217903E-04 
    1.3281286822408589E-04 
    1.4776219507339761E-04 
    1.2823077181600695E-04 
    1.3531648885756198E-04 
    1.5861873358424816E-04 
    1.6219074038037462E-04 
    1.3759012295366801E-04 
    1.3422978889732207E-04 
    1.5705972257240575E-04 
    1.4463317348045734E-04 
    1.2576230975192004E-04 
    1.1363592073188045E-04 
    1.2776598221986291E-04 
    1.0921138675978881E-04 
    9.9510587002527018E-05 
    8.4772024348644948E-05 
    9.0903182337953581E-05 
    7.3903999028956946E-05 
    7.0358284066429633E-05 
    5.6787895332810479E-05 
    5.8629053278913545E-05 
    4.5099511419621763E-05 
    4.4266614407817428E-05 
    3.2798604233441608E-05 
    3.3133642786786766E-05 
    2.2465648985559028E-05 
    2.2272971943237962E-05 
    1.2521048764035925E-05 
    1.2809469517982564E-05 
    3.8877684822580250E-06 
    3.3500158531651891E-06 
    5.4401058005026925E-06 
    4.5589642811982856E-06 
    1.2773663788934186E-05 
    1.4049857041786851E-05 
    2.2680081678050357E-05 
    2.0989175867569543E-05 
    2.9437206879645572E-05 
    3.1535193928622363E-05 
    4.0828515914803631E-05 
    3.8358731818899372E-05 
    4.8015341556517654E-05 
    5.0788512275357078E-05 
    6.1665304032398893E-05 
    5.8701541427730319E-05 
    7.0757599788251468E-05 
    7.3736245043587445E-05 
    8.7309075438746220E-05 
    8.4582108813346935E-05 
    1.0064161909806302E-04 
    1.0271940030426308E-04 
    1.2031736979389862E-04 
    1.1947184471861050E-04 
    1.4165901236617984E-04 
    1.4043440072430968E-04 
    1.6331632267618801E-04 
    1.6778035422237991E-04 
    1.9826757772922754E-04 
    1.8900355611184416E-04 
    2.1713760311792285E-04 
    2.3313898456644999E-04 
    2.7153635106214047E-04 
    2.4668440421748983E-04 
    2.7561157390509905E-04 
    3.1104158554096095E-04 
    3.4692716867690265E-04 
    3.0066701931530382E-04 
    3.1759644099338402E-04 
    3.7196301581032820E-04 
    7.5216197387817374E-05 
    7.0054103405325918E-05 
    6.9396637551122353E-05 
    7.4218800363290427E-05 
    7.1770981961982727E-05 
    6.7687465302057603E-05 
    6.5126341616483785E-05 
    6.8226061177512065E-05 
    6.4031076274062571E-05 
    6.1992002586386263E-05 
    5.8573288127306000E-05 
    5.9606560895097971E-05 
    5.5281708883470060E-05 
    5.5121484801468057E-05 
    5.1828990405233810E-05 
    5.1279608847210056E-05 
    4.7731255072847034E-05 
    4.8828090780439481E-05 
    4.6200524631778705E-05 
    4.4700091859972702E-05 
    4.2206119115206775E-05 
    4.3990882150346522E-05 
    4.2219389174036337E-05 
    4.0245278683848085E-05 
    3.8803224553518589E-05 
    4.0892514181045669E-05 
    4.0010776821475247E-05 
    3.7864500713524762E-05 
    3.7418252965437659E-05 
    3.9574333357883518E-05 
    3.9586593594265196E-05 
    3.7461776964065052E-05 
    3.8002617713139841E-05 
    4.0056624336592961E-05 
    4.1000427023263342E-05 
    3.9059909885175159E-05 
    4.0665101291637029E-05 
    4.2441530804460115E-05 
    4.4410632997760047E-05 
    4.2862204045590602E-05 
    4.5707207168455000E-05 
    4.6944322273034800E-05 
    5.0082168491449863E-05 
    4.9266160212724230E-05 
    5.3610797064784776E-05 
    5.3861674896182876E-05 
    5.8309787411836567E-05 
    5.8810130148856388E-05 
    6.4915525804565277E-05 
    6.3429857334540429E-05 
    6.9182478466878194E-05 
    7.1936250187754069E-05 
    7.9802153050145819E-05 
    7.5459665379362661E-05 
    8.2053355725086874E-05 
    8.8311931651929854E-05 
    9.7070988654301971E-05 
    8.8623831040024470E-05 
    9.4680334153274259E-05 
    1.0543550319397355E-04 
    1.1250082083691382E-04 
    9.9595515732353590E-05 
    1.0267995371116001E-04 
    1.1719561893386299E-04 
    1.1853945869777505E-04 
    1.0333075002044723E-04 
    1.0121864078271869E-04 
    1.1602605482252670E-04 
    1.0984711989525664E-04 
    9.6401962362158145E-05 
    8.9285534508931619E-05 
    1.0075799560560483E-04 
    8.9753871730380297E-05 
    8.0470395365850322E-05 
    7.0589945321053449E-05 
    7.7780978235963971E-05 
    6.5577779261083435E-05 
    6.0194241177313756E-05 
    4.9696035796742422E-05 
    5.3634231108823371E-05 
    4.2220044900176390E-05 
    3.9364136009467643E-05 
    2.9342853232527943E-05 
    3.1438420755591778E-05 
    2.1279560507458939E-05 
    1.9680530535026719E-05 
    1.0357221808199313E-05 
    1.1663202083234125E-05 
    2.4681578336682719E-06 
    1.3070539450765750E-06 
    7.5656344784569285E-06 
    6.4493078948402172E-06 
    1.5245413870434987E-05 
    1.6375693972836558E-05 
    2.5250847272229038E-05 
    2.4084441749394614E-05 
    3.3137906852331867E-05 
    3.4328298352370723E-05 
    4.3753104514543395E-05 
    4.2585767321412504E-05 
    5.2618511217517039E-05 
    5.3677192590306788E-05 
    6.4257982172577499E-05 
    6.3439005327570186E-05 
    7.5262861258806879E-05 
    7.5655350502579211E-05 
    8.8025415899473103E-05 
    8.8315483638634618E-05 
    1.0282311091946994E-04 
    1.0150901480887597E-04 
    1.1621219316682030E-04 
    1.1899374441570743E-04 
    1.3698207363121995E-04 
    1.3217535697895855E-04 
    1.4932785617149946E-04 
    1.5683091017848483E-04 
    1.7838120786883849E-04 
    1.6742621444820749E-04 
    1.8597920806517898E-04 
    2.0114692654416011E-04 
    2.2416489611876145E-04 
    2.0417334180700131E-04 
    2.2083024811991869E-04 
    2.4586159993278400E-04 
    2.6403325869228667E-04 
    2.3445012976508472E-04 
    2.4340842437808874E-04 
    2.7609663846739352E-04 
    6.5975022153885732E-05 
    6.2685618003932575E-05 
    6.2380955495378032E-05 
    6.5531005795982367E-05 
    6.4308813777280704E-05 
    6.1489958219418384E-05 
    6.0084294103646130E-05 
    6.2425959802325792E-05 
    6.0059871938911158E-05 
    5.8279642665581832E-05 
    5.6213429542317783E-05 
    5.7409003078490173E-05 
    5.4660596116917759E-05 
    5.4024002972496987E-05 
    5.1835741481376374E-05 
    5.1971655434357444E-05 
    4.9462056530558129E-05 
    4.9751361657079940E-05 
    4.7850046102304589E-05 
    4.7216408804118259E-05 
    4.5290197042469060E-05 
    4.6189549396835616E-05 
    4.4810140819251387E-05 
    4.3717510222585076E-05 
    4.2518211571973552E-05 
    4.3739194200753673E-05 
    4.2995379578414372E-05 
    4.1704062967440336E-05 
    4.1283283172433016E-05 
    4.2592240794725456E-05 
    4.2540831524107148E-05 
    4.1263929939638899E-05 
    4.1656017609525975E-05 
    4.2851587714665129E-05 
    4.3535292025609351E-05 
    4.2472799604453826E-05 
    4.3731059775176107E-05 
    4.4603313940072553E-05 
    4.6066913514053454E-05 
    4.5450602947916252E-05 
    4.7652573758050210E-05 
    4.7935647408792192E-05 
    5.0214524526914772E-05 
    5.0356461341216630E-05 
    5.3575158409202572E-05 
    5.2899798194339098E-05 
    5.5972988033836657E-05 
    5.7307617273849587E-05 
    6.1528386578579841E-05 
    5.9393097719961929E-05 
    6.3087044534171355E-05 
    6.6173766306576454E-05 
    7.1124898214591781E-05 
    6.6939176981861692E-05 
    7.0781578491718733E-05 
    7.6189762803657857E-05 
    8.1088617988278600E-05 
    7.4388535586500382E-05 
    7.7479897518273333E-05 
    8.5450939093512090E-05 
    8.8835094587125241E-05 
    7.9738991205502430E-05 
    8.0848778710063129E-05 
    9.0781247487292660E-05 
    9.0898282537388297E-05 
    8.0543971835211892E-05 
    7.8665559222201864E-05 
    8.8961877349191809E-05 
    8.4976061868857755E-05 
    7.5195928816107482E-05 
    7.0257861659150933E-05 