# vtk DataFile Version 2.0
Pressure Field Data 
ASCII 
DATASET UNSTRUCTURED_GRID 

POINTS 1089 float 

    0.0000000000000000E+00     0.0000000000000000E+00     0.0000000000000000E+00 
    1.0000000000000000E+00     0.0000000000000000E+00     0.0000000000000000E+00 
    1.0000000000000000E+00     1.0000000000000000E+00     0.0000000000000000E+00 
    0.0000000000000000E+00     1.0000000000000000E+00     0.0000000000000000E+00 
    3.1249999999941821E-02     0.0000000000000000E+00     0.0000000000000000E+00 
    6.2499999999872928E-02     0.0000000000000000E+00     0.0000000000000000E+00 
    9.3749999999823030E-02     0.0000000000000000E+00     0.0000000000000000E+00 
    1.2499999999977310E-01     0.0000000000000000E+00     0.0000000000000000E+00 
    1.5624999999968331E-01     0.0000000000000000E+00     0.0000000000000000E+00 
    1.8749999999959341E-01     0.0000000000000000E+00     0.0000000000000000E+00 
    2.1874999999950220E-01     0.0000000000000000E+00     0.0000000000000000E+00 
    2.4999999999941089E-01     0.0000000000000000E+00     0.0000000000000000E+00 
    2.8124999999931971E-01     0.0000000000000000E+00     0.0000000000000000E+00 
    3.1249999999922851E-01     0.0000000000000000E+00     0.0000000000000000E+00 
    3.4374999999913730E-01     0.0000000000000000E+00     0.0000000000000000E+00 
    3.7499999999904610E-01     0.0000000000000000E+00     0.0000000000000000E+00 
    4.0624999999895478E-01     0.0000000000000000E+00     0.0000000000000000E+00 
    4.3749999999886358E-01     0.0000000000000000E+00     0.0000000000000000E+00 
    4.6874999999877792E-01     0.0000000000000000E+00     0.0000000000000000E+00 
    4.9999999999869210E-01     0.0000000000000000E+00     0.0000000000000000E+00 
    5.3124999999876910E-01     0.0000000000000000E+00     0.0000000000000000E+00 
    5.6249999999884603E-01     0.0000000000000000E+00     0.0000000000000000E+00 
    5.9374999999892841E-01     0.0000000000000000E+00     0.0000000000000000E+00 
    6.2499999999901090E-01     0.0000000000000000E+00     0.0000000000000000E+00 
    6.5624999999909328E-01     0.0000000000000000E+00     0.0000000000000000E+00 
    6.8749999999917577E-01     0.0000000000000000E+00     0.0000000000000000E+00 
    7.1874999999925815E-01     0.0000000000000000E+00     0.0000000000000000E+00 
    7.4999999999934064E-01     0.0000000000000000E+00     0.0000000000000000E+00 
    7.8124999999942302E-01     0.0000000000000000E+00     0.0000000000000000E+00 
    8.1249999999950551E-01     0.0000000000000000E+00     0.0000000000000000E+00 
    8.4374999999958789E-01     0.0000000000000000E+00     0.0000000000000000E+00 
    8.7499999999967026E-01     0.0000000000000000E+00     0.0000000000000000E+00 
    9.0624999999975264E-01     0.0000000000000000E+00     0.0000000000000000E+00 
    9.3749999999983513E-01     0.0000000000000000E+00     0.0000000000000000E+00 
    9.6874999999991751E-01     0.0000000000000000E+00     0.0000000000000000E+00 
    1.0000000000000000E+00     3.1249999999941821E-02     0.0000000000000000E+00 
    1.0000000000000000E+00     6.2499999999872928E-02     0.0000000000000000E+00 
    1.0000000000000000E+00     9.3749999999823030E-02     0.0000000000000000E+00 
    1.0000000000000000E+00     1.2499999999977310E-01     0.0000000000000000E+00 
    1.0000000000000000E+00     1.5624999999968331E-01     0.0000000000000000E+00 
    1.0000000000000000E+00     1.8749999999959341E-01     0.0000000000000000E+00 
    1.0000000000000000E+00     2.1874999999950220E-01     0.0000000000000000E+00 
    1.0000000000000000E+00     2.4999999999941089E-01     0.0000000000000000E+00 
    1.0000000000000000E+00     2.8124999999931971E-01     0.0000000000000000E+00 
    1.0000000000000000E+00     3.1249999999922851E-01     0.0000000000000000E+00 
    1.0000000000000000E+00     3.4374999999913730E-01     0.0000000000000000E+00 
    1.0000000000000000E+00     3.7499999999904610E-01     0.0000000000000000E+00 
    1.0000000000000000E+00     4.0624999999895478E-01     0.0000000000000000E+00 
    1.0000000000000000E+00     4.3749999999886358E-01     0.0000000000000000E+00 
    1.0000000000000000E+00     4.6874999999877792E-01     0.0000000000000000E+00 
    1.0000000000000000E+00     4.9999999999869210E-01     0.0000000000000000E+00 
    1.0000000000000000E+00     5.3124999999876910E-01     0.0000000000000000E+00 
    1.0000000000000000E+00     5.6249999999884603E-01     0.0000000000000000E+00 
    1.0000000000000000E+00     5.9374999999892841E-01     0.0000000000000000E+00 
    1.0000000000000000E+00     6.2499999999901090E-01     0.0000000000000000E+00 
    1.0000000000000000E+00     6.5624999999909328E-01     0.0000000000000000E+00 
    1.0000000000000000E+00     6.8749999999917577E-01     0.0000000000000000E+00 
    1.0000000000000000E+00     7.1874999999925815E-01     0.0000000000000000E+00 
    1.0000000000000000E+00     7.4999999999934064E-01     0.0000000000000000E+00 
    1.0000000000000000E+00     7.8124999999942302E-01     0.0000000000000000E+00 
    1.0000000000000000E+00     8.1249999999950551E-01     0.0000000000000000E+00 
    1.0000000000000000E+00     8.4374999999958789E-01     0.0000000000000000E+00 
    1.0000000000000000E+00     8.7499999999967026E-01     0.0000000000000000E+00 
    1.0000000000000000E+00     9.0624999999975264E-01     0.0000000000000000E+00 
    1.0000000000000000E+00     9.3749999999983513E-01     0.0000000000000000E+00 
    1.0000000000000000E+00     9.6874999999991751E-01     0.0000000000000000E+00 
    9.6874999999986700E-01     1.0000000000000000E+00     0.0000000000000000E+00 
    9.3749999999973976E-01     1.0000000000000000E+00     0.0000000000000000E+00 
    9.0624999999967670E-01     1.0000000000000000E+00     0.0000000000000000E+00 
    8.7499999999950118E-01     1.0000000000000000E+00     0.0000000000000000E+00 
    8.4374999999971556E-01     1.0000000000000000E+00     0.0000000000000000E+00 
    8.1249999999991318E-01     1.0000000000000000E+00     0.0000000000000000E+00 
    7.8125000000010270E-01     1.0000000000000000E+00     0.0000000000000000E+00 
    7.5000000000034706E-01     1.0000000000000000E+00     0.0000000000000000E+00 
    7.1875000000056688E-01     1.0000000000000000E+00     0.0000000000000000E+00 
    6.8750000000078049E-01     1.0000000000000000E+00     0.0000000000000000E+00 
    6.5625000000097422E-01     1.0000000000000000E+00     0.0000000000000000E+00 
    6.2500000000121403E-01     1.0000000000000000E+00     0.0000000000000000E+00 
    5.9375000000151579E-01     1.0000000000000000E+00     0.0000000000000000E+00 
    5.6250000000164757E-01     1.0000000000000000E+00     0.0000000000000000E+00 
    5.3125000000182365E-01     1.0000000000000000E+00     0.0000000000000000E+00 
    5.0000000000205946E-01     1.0000000000000000E+00     0.0000000000000000E+00 
    4.6875000000194023E-01     1.0000000000000000E+00     0.0000000000000000E+00 
    4.3750000000182099E-01     1.0000000000000000E+00     0.0000000000000000E+00 
    4.0625000000169093E-01     1.0000000000000000E+00     0.0000000000000000E+00 
    3.7500000000156092E-01     1.0000000000000000E+00     0.0000000000000000E+00 
    3.4375000000143069E-01     1.0000000000000000E+00     0.0000000000000000E+00 
    3.1250000000130068E-01     1.0000000000000000E+00     0.0000000000000000E+00 
    2.8125000000117062E-01     1.0000000000000000E+00     0.0000000000000000E+00 
    2.5000000000104050E-01     1.0000000000000000E+00     0.0000000000000000E+00 
    2.1875000000091041E-01     1.0000000000000000E+00     0.0000000000000000E+00 
    1.8750000000078040E-01     1.0000000000000000E+00     0.0000000000000000E+00 
    1.5625000000065031E-01     1.0000000000000000E+00     0.0000000000000000E+00 
    1.2500000000052031E-01     1.0000000000000000E+00     0.0000000000000000E+00 
    9.3750000000390132E-02     1.0000000000000000E+00     0.0000000000000000E+00 
    6.2500000000260125E-02     1.0000000000000000E+00     0.0000000000000000E+00 
    3.1250000000130007E-02     1.0000000000000000E+00     0.0000000000000000E+00 
    0.0000000000000000E+00     9.6874999999986700E-01     0.0000000000000000E+00 
    0.0000000000000000E+00     9.3749999999973976E-01     0.0000000000000000E+00 
    0.0000000000000000E+00     9.0624999999967670E-01     0.0000000000000000E+00 
    0.0000000000000000E+00     8.7499999999950118E-01     0.0000000000000000E+00 
    0.0000000000000000E+00     8.4374999999971556E-01     0.0000000000000000E+00 
    0.0000000000000000E+00     8.1249999999991318E-01     0.0000000000000000E+00 
    0.0000000000000000E+00     7.8125000000010270E-01     0.0000000000000000E+00 
    0.0000000000000000E+00     7.5000000000034706E-01     0.0000000000000000E+00 
    0.0000000000000000E+00     7.1875000000056688E-01     0.0000000000000000E+00 
    0.0000000000000000E+00     6.8750000000078049E-01     0.0000000000000000E+00 
    0.0000000000000000E+00     6.5625000000097422E-01     0.0000000000000000E+00 
    0.0000000000000000E+00     6.2500000000121403E-01     0.0000000000000000E+00 
    0.0000000000000000E+00     5.9375000000151579E-01     0.0000000000000000E+00 
    0.0000000000000000E+00     5.6250000000164757E-01     0.0000000000000000E+00 
    0.0000000000000000E+00     5.3125000000182365E-01     0.0000000000000000E+00 
    0.0000000000000000E+00     5.0000000000205946E-01     0.0000000000000000E+00 
    0.0000000000000000E+00     4.6875000000194023E-01     0.0000000000000000E+00 
    0.0000000000000000E+00     4.3750000000182099E-01     0.0000000000000000E+00 
    0.0000000000000000E+00     4.0625000000169093E-01     0.0000000000000000E+00 
    0.0000000000000000E+00     3.7500000000156092E-01     0.0000000000000000E+00 
    0.0000000000000000E+00     3.4375000000143069E-01     0.0000000000000000E+00 
    0.0000000000000000E+00     3.1250000000130068E-01     0.0000000000000000E+00 
    0.0000000000000000E+00     2.8125000000117062E-01     0.0000000000000000E+00 
[...]
CELL_DATA 1024 
SCALARS Pressure float 1 
LOOKUP_TABLE default 

    6.5040305414648323E+00 
    6.5223818355802194E+00 
    6.4695385272905321E+00 
    6.4599085604859505E+00 
    6.4224968048680733E+00 
    6.4234541483118877E+00 
    6.3809119495652853E+00 
    6.3871886404321208E+00 
    6.3526886473735873E+00 
    6.3401783128974296E+00 
    6.3003432769217946E+00 
    6.3185372849460180E+00 
    6.2845267087785253E+00 
    6.2608960846444637E+00 
    6.2215204349391620E+00 
    6.2505411244288149E+00 
    6.2165044692377025E+00 
    6.1819985079975543E+00 
    6.1421638663471638E+00 
    6.1823596175384576E+00 
    6.1480581790098476E+00 
    6.1018762602260272E+00 
    6.0610060329262661E+00 
    6.1135532284147125E+00 
    6.0787881637774746E+00 
    6.0194216027177152E+00 
    5.9769762639210553E+00 
    6.0436620358373334E+00 
    6.0078868253500906E+00 
    5.9335014639765014E+00 
    5.8888961875852379E+00 
    5.9703406976657627E+00 
    5.7987293179875126E+00 
    5.7039821198699991E+00 
    5.3756432271673908E+00 
    5.4789318622341154E+00 
    5.1601325702723422E+00 
    5.0456627831498118E+00 
    4.7139795368685249E+00 
    4.8410456987019037E+00 
    4.5213256531114014E+00 
    4.3802843660209954E+00 
    4.0442144687924682E+00 
    4.2007987992334863E+00 
    3.8793023465596290E+00 
    3.7053382270112865E+00 
    3.3631109087634719E+00 
    3.5566379281243381E+00 
    3.2325407720604229E+00 
    3.0168120664683005E+00 
    2.6654475081418036E+00 
    2.9066370782397266E+00 
    2.5783673185155842E+00 
    2.3075813696404559E+00 
    1.9410281251043799E+00 
    2.2468294931032871E+00 
    1.9104160855766061E+00 
    1.5622513287885300E+00 
    1.1651225393638815E+00 
    1.5658441523080975E+00 
    1.2051448139898018E+00 
    7.3826905246299035E-01 
    2.5953063209509686E-01 
    8.0493587443072889E-01 
    6.5303329328786059E+00 
    6.5321446469717905E+00 
    6.4735980519245722E+00 
    6.4737386429359098E+00 
    6.4222176332463539E+00 
    6.4185654877759921E+00 
    6.3661707848545062E+00 
    6.3740522884288948E+00 
    6.3278976395683326E+00 
    6.3155125819839819E+00 
    6.2658356883224959E+00 
    6.2828356961574618E+00 
    6.2382502818094610E+00 
    6.2165483138864159E+00 
    6.1671883329586485E+00 
    6.1937122582185697E+00 
    6.1489033316135835E+00 
    6.1173837683081622E+00 
    6.0668206353574003E+00 
    6.1035693483805158E+00 
    6.0574916663078966E+00 
    6.0152193984572593E+00 
    5.9623182549781086E+00 
    6.0104688855157180E+00 
    5.9623047476937288E+00 
    5.9078615440867548E+00 
    5.8515927753566368E+00 
    5.9128017439855629E+00 
    5.8617675926092403E+00 
    5.7932533325777662E+00 
    5.7325866045159071E+00 
    5.8090601346224080E+00 
    5.6141167693957810E+00 
    5.5287016761633163E+00 
    5.1810796607288641E+00 
    5.2760108460970754E+00 
    4.9352259680545352E+00 
    4.8299375202798389E+00 
    4.4748446782875533E+00 
    4.5915212872986100E+00 
    4.2444992969531992E+00 
    4.1152724837648185E+00 
    3.7505695247789488E+00 
    3.8936445550001113E+00 
    3.5383145484834442E+00 
    3.3799339646051392E+00 
    3.0023670547804935E+00 
    3.1776963928158306E+00 
    2.8107333866686228E+00 
    2.6166012554106581E+00 
    2.2209933395261832E+00 
    2.4360093477114870E+00 
    2.0515633432719813E+00 
    1.8133668233336435E+00 
    1.3907819417428395E+00 
    1.6545854331398604E+00 
    1.2409096252049934E+00 
    9.4921072715158039E-01 
    4.8311878294754829E-01 
    8.0417889039061163E-01 
    3.3457302372562142E-01 
   -1.4939742767819035E-02 
   -5.5428774923834345E-01 
   -1.8262537393748374E-01 
    6.5301509614263162E+00 
    6.5258178555589303E+00 
    6.4652118111344041E+00 
    6.4703979966859615E+00 
    6.4129443283675061E+00 
    6.4059753741846173E+00 
    6.3478597125321530E+00 
    6.3573346964000796E+00 
    6.3029860312712920E+00 
    6.2904810398900555E+00 
    6.2334051019234611E+00 
    6.2493217825148921E+00 
    6.1958262484572648E+00 
    6.1761979734935686E+00 
    6.1184477346039818E+00 
    6.1420524245319692E+00 
    6.0876106360510942E+00 
    6.0597683490533463E+00 
    5.9997948885706451E+00 
    6.0321522597324968E+00 
    5.9753543017687623E+00 
    5.9381755228443591E+00 
    5.8745629249025519E+00 
    5.9169065052053860E+00 
    5.8565011161012190E+00 
    5.8086061298919676E+00 
    5.7399429892541143E+00 
    5.7938250080221270E+00 
    5.7285534161039289E+00 
    5.6681926238356848E+00 
    5.5929461546867634E+00 
    5.6603422331664941E+00 
    5.4481834235861779E+00 
    5.3731276429079751E+00 
    5.0082245891237083E+00 
    5.0915978731969780E+00 
    4.7307071658123645E+00 
    4.6382965577628390E+00 
    4.2627142644576939E+00 
    4.3649604791211374E+00 
    3.9937193484292108E+00 
    3.8807607112044757E+00 
    3.4916039228339932E+00 
    3.6162254790322912E+00 
    3.2315669342307989E+00 
    3.0942659091718596E+00 
    2.6875843393503680E+00 
    2.8386332397883134E+00 
    2.4360531024597556E+00 
    2.2701637666173662E+00 
    1.8403144077716311E+00 
    2.0221089588390897E+00 
    1.5946225152642790E+00 
    1.3959787412345532E+00 
    9.3465146582822767E-01 
    1.1508081148580724E+00 
    6.8710216692603443E-01 
    4.5331003843475720E-01 
   -5.1604103099978184E-02 
    1.9900940776421749E-01 
   -3.1891744952296258E-01 
   -5.8407575536175582E-01 
   -1.1481560652594802E+00 
   -8.7270643622787225E-01 
    6.5201595584983680E+00 
    6.5139230562144048E+00 
    6.4521054666946318E+00 
    6.4588901899174704E+00 
    6.3982694892525043E+00 
    6.3903692566396426E+00 
    6.3286161200634350E+00 
    6.3381499986697358E+00 
    6.2782660118389737E+00 
    6.2666481421827589E+00 
    6.2041963482916032E+00 
    6.2182831246714985E+00 
    6.1578359715015401E+00 
    6.1409463783945970E+00 
    6.0765568409197064E+00 
    6.0965505164491205E+00 
    6.0340538568538111E+00 
    6.0106699923031455E+00 
    5.9429163005459111E+00 
    5.9699759543266504E+00 
    5.9039468890860949E+00 
    5.8729148110968774E+00 
    5.8002708826638685E+00 
    5.8355919407871868E+00 
    5.7645257210447207E+00 
    5.7245723271747693E+00 
    5.6453844953233547E+00 
    5.6903458089095684E+00 
    5.6126257481899078E+00 
    5.5622444576421701E+00 
    5.4746541839029330E+00 
    5.5309067762148683E+00 
    5.3040626081344904E+00 
    5.2414476756428954E+00 
    4.8620326081246716E+00 
    4.9315383382841222E+00 
    4.5533452372211061E+00 
    4.4763828011498212E+00 
    4.0837786584092575E+00 
    4.1688004329402286E+00 
    3.7771349558820968E+00 
    3.6834192704089461E+00 
    3.2744065532400097E+00 
    3.3774724971521408E+00 
    2.9688044371904683E+00 
    2.8557268576189210E+00 
    2.4262302751922316E+00 
    2.5499603195473020E+00 
    2.1195730509551831E+00 
    1.9846082250866686E+00 
    1.5293710499644648E+00 
    1.6760393572520000E+00 
    1.2174786066338772E+00 
    1.0588294733644161E+00 
    5.7108716012578686E-01 
    7.4169790207952191E-01 
    2.4617959237938580E-01 
    6.4056437544276382E-02 
   -4.6448516065485251E-01 
   -2.7188017095053651E-01 
   -8.1543866980280455E-01 
   -1.0167762087312029E+00 
   -1.5948742025793772E+00 
   -1.3873306901795044E+00 
    6.5076790164018838E+00 
    6.5018707272312675E+00 
    6.4391748143967922E+00 
    6.4453919771279198E+00 
    6.3827366847377816E+00 
    6.3757554532681917E+00 
    6.3115444643825853E+00 
    6.3196371020845188E+00 
    6.2559328208659437E+00 
    6.2464007045778231E+00 
    6.1801197548272429E+00 
    6.1913955815078454E+00 
    6.1257461087226375E+00 
    6.1124448072686670E+00 
    6.0430764789759337E+00 
    6.0586678561434066E+00 
    5.9898164018458226E+00 
    5.9716803033675170E+00 
    5.8978915506366345E+00 
    5.9188246749674835E+00 
    5.8453048238676981E+00 
    5.8213175816384037E+00 
    5.7415381699830235E+00 
    5.7688476259065951E+00 
    5.6890201696270646E+00 
    5.6581042474107202E+00 
    5.5705354463599459E+00 
    5.6053622948303019E+00 
    5.5173820515045318E+00 
    5.4783167080042841E+00 
    5.3808941438702877E+00 
    5.4245502950948365E+00 
    5.1856695318083208E+00 
    5.1370453118892287E+00 
    4.7461240760512409E+00 
    4.8001172692094132E+00 
    4.4078391251454931E+00 
    4.3480551515565704E+00 
    3.9420781428073020E+00 
    4.0080908778426920E+00 
    3.6000538697154822E+00 
    3.5273659266823691E+00 
    3.1030175194843190E+00 
    3.1828238298357210E+00 
    2.7553985099125509E+00 
    2.6680508537050138E+00 
    2.2213961904082145E+00 
    2.3166647510420963E+00 
    1.8653860731589813E+00 
    1.7618913311036830E+00 
    1.2882804679273794E+00 
    1.4001928102662708E+00 
    9.1957830661109752E-01 
    7.9921944744781714E-01 
    2.9329133447830819E-01 
    4.2190675754657608E-01 
   -9.4559308312479995E-02 
   -2.3096284273611997E-01 
   -7.7499304362845534E-01 
   -6.3160198274039892E-01 
   -1.1909519253266809E+00 
   -1.3401653497951309E+00 
   -1.9276646225139409E+00 
   -1.7741500331919768E+00 
    6.4968423862217435E+00 
    6.4928564228095462E+00 
    6.4294939164707694E+00 
    6.4337892654085582E+00 
    6.3697367455820464E+00 
    6.3649251281038550E+00 
    6.2990768806832245E+00 
    6.3046164698362377E+00 
    6.2382954369815371E+00 
    6.2318174137246141E+00 
    6.1629598800946903E+00 
    6.1705817743391274E+00 
    6.1012317571483914E+00 
    6.0922668825082518E+00 
    6.0194551541203429E+00 
    6.0299566369836581E+00 
    5.9564282930810535E+00 
    5.9441996707850269E+00 
    5.8661367611390887E+00 
    5.8802832344200962E+00 
    5.8011248781634723E+00 
    5.7848660422582476E+00 
    5.6999511989338245E+00 
    5.7185242634147135E+00 
    5.6320194551558931E+00 
    5.6109197364832131E+00 
    5.5172618880616486E+00 
    5.5411139026773739E+00 
    5.4452739873753435E+00 
    5.4184288722101597E+00 
    5.3138306961117490E+00 
    5.3439259610825767E+00 
    5.0958274559014676E+00 
    5.0622086975409193E+00 
    4.6628830155978322E+00 
    4.7003137337288212E+00 
    4.2972938056588026E+00 
    4.2557501713285069E+00 
    3.8400309301242799E+00 
    3.8859964736328951E+00 
    3.4655913805246534E+00 
    3.4148936547869888E+00 
    2.9794534550842529E+00 
    3.0351853095823143E+00 
    2.5938191833612039E+00 
    2.5327725793083133E+00 
    2.0738626656635715E+00 
    2.1404664638665194E+00 
    1.6740339849211650E+00 
    1.6016896789478579E+00 
    1.1151825970512557E+00 
    1.1933666830733001E+00 
    6.9725821474512439E-01 
    6.1324714826047433E-01 
    9.4786048700299053E-02 
    1.8446995094416554E-01 
   -3.4623890599737245E-01 
   -4.4127290495122617E-01 
   -9.9594009292185492E-01 
   -8.9606773907246051E-01 
   -1.4661167264064170E+00 
   -1.5701191587257186E+00 
   -2.1645565199546972E+00 
   -2.0573174156250102E+00 
    6.4901046187099158E+00 
    6.4887155323745374E+00 
    6.4248757699295140E+00 
    6.4264796218614286E+00 
    6.3615035320639013E+00 
    6.3595972431009375E+00 
    6.2927898659583192E+00 
    6.2950955785985645E+00 
    6.2271208728557772E+00 
    6.2243127853821294E+00 
    6.1539757644075230E+00 
    6.1573925687659132E+00 
    6.0856748138395931E+00 
    6.0815411314872039E+00 
    6.0067259301742153E+00 
    6.0116859280099497E+00 
    5.9351013136616917E+00 
    5.9292039246428523E+00 
    5.8486071972763183E+00 
    5.8555557482047593E+00 
    5.7726448765083971E+00 
    5.7645271807866907E+00 
    5.6765150714812318E+00 
    5.6859258629633711E+00 
    5.5949172658157487E+00 
    5.5840816572970926E+00 
    5.4866966601816154E+00 
    5.4990982615406807E+00 
    5.3979073847384553E+00 
    5.3837877403292369E+00 
    5.2747393454113602E+00 
    5.2907409710147597E+00 
    5.0363265052518233E+00 
    5.0182666165872725E+00 
    4.6136645883111482E+00 
    4.6339710896944535E+00 
    4.2235602569832373E+00 
    4.2008079430515926E+00 
    3.7789016080527684E+00 
    3.8043073685977196E+00 
    3.3753788748709583E+00 
    3.3471075137043238E+00 
    2.9045478724067206E+00 
    2.9358957754251951E+00 
    2.4849367023935431E+00 
    2.4503103771336519E+00 
    1.9834557506207038E+00 
    2.0215431443253857E+00 
    1.5447274280800303E+00 
    1.5030280876493189E+00 
    1.0080684091029550E+00 
    1.0534841650429434E+00 
    5.4680591551547253E-01 
    4.9763176540568788E-01 
   -2.9191942422072004E-02 
    2.3703773511629608E-02 
   -5.1676666453669273E-01 
   -5.7325355204695660E-01 
   -1.1353172267292428E+00 
   -1.0754740175277384E+00 
   -1.6531755131517429E+00 
   -1.7160312612503068E+00 
   -2.3158990869490097E+00 
   -2.2504793434438781E+00 
    6.4887596175962932E+00 
    6.4902528358198888E+00 
    6.4261352396611313E+00 
    6.4247547567727912E+00 
    6.3592770431173964E+00 
    6.3605616822827553E+00 
    6.2934203379096196E+00 
    6.2922259402021137E+00 
    6.2234527148998584E+00 
    6.2245532030290596E+00 
    6.1537568858779323E+00 
    6.1527613985101821E+00 
    6.0799101255767303E+00 
    6.0807836147077508E+00 
    6.0053422682967517E+00 
    6.0046125967691681E+00 
    5.9265394211524676E+00 
    5.9270992453934088E+00 
    5.8456790295245433E+00 
    5.8453191430981484E+00 
    5.7605388314555297E+00 
    5.7606643612118091E+00 
    5.6715959909920670E+00 
    5.6717441863623304E+00 
    5.5784391910714204E+00 
    5.5779720467035165E+00 
    5.4792471040142283E+00 
    5.4800853977066506E+00 
    5.3761009870501777E+00 
    5.3748310999189464E+00 
    5.2640882764105177E+00 
    5.2658597858875522E+00 
    5.0080654641088946E+00 
    5.0057113875738857E+00 
    4.5989714490783857E+00 
    4.6020011698991237E+00 
    4.1875298960844702E+00 
    4.1837183543110772E+00 
    3.7591327243716677E+00 
    3.7638459042985697E+00 
    3.3301025651511083E+00 
    3.3243543956504680E+00 
    2.8784879709001210E+00 
    2.8854169978424222E+00 
    2.4288769031011581E+00 
    2.4206108552931322E+00 
    1.9497841519394190E+00 
    1.9595499669942540E+00 
    1.4764961563940280E+00 
    1.4650666842450966E+00 
    9.6553223006879663E-01 
    9.7878311570519116E-01 
    4.6550469600549860E-01 
    4.5028978699361721E-01 
   -8.1493654994973935E-02 
   -6.4197607405427251E-02 
   -6.1111086714083995E-01 
   -6.3056875187393036E-01 
   -1.1975791709146564E+00 
   -1.1759255456580100E+00 
   -1.7592103244352584E+00 
   -1.7830383293182912E+00 
   -2.3873093355476640E+00 
   -2.3613887462937622E+00 
    6.4931592276623196E+00 
    6.4973927046648337E+00 
    6.4332202995827954E+00 
    6.4289845249319058E+00 
    6.3634198299268787E+00 
    6.3677716090179093E+00 
    6.3009098937088988E+00 
    6.2963412786810808E+00 
    6.2275804505791479E+00 
    6.2324551817603906E+00 
    6.1621853389332717E+00 
    6.1569251939832847E+00 
    6.0841205268851883E+00 
    6.0898370665914721E+00 
    6.0151066439100180E+00 
    6.0088694361303689E+00 
    5.9308334261870792E+00 
    5.9376502821261008E+00 
    5.8570840128012183E+00 
    5.8496327107152712E+00 
    5.7648459900807465E+00 
    5.7729830832946876E+00 
    5.6848808789634315E+00 
    5.6760098098664820E+00 
    5.5826175461790646E+00 
    5.5922674337988543E+00 
    5.4945876318057154E+00 
    5.4841181123563993E+00 
    5.3799145295858493E+00 
    5.3912392438290393E+00 
    5.2815709922268317E+00 
    5.2693625528377730E+00 
    5.0111445951331151E+00 
    5.0242558913880391E+00 
    4.6185401764708933E+00 
    4.6045192481543786E+00 
    4.1893217546112718E+00 
    4.2042432046036557E+00 
    3.7805087887771909E+00 
    3.7647158445252957E+00 
    3.3298223977041621E+00 
    3.3464334986801307E+00 
    2.9010725231883381E+00 
    2.8837254275665627E+00 
    2.4254808806134633E+00 
    2.4434487155246591E+00 
    1.9725654038703564E+00 
    1.9541286890872820E+00 
    1.4687083766662166E+00 
    1.4874234096680810E+00 
    9.8704243451276064E-01 
    9.6827827603862970E-01 
    4.5193806213202847E-01 
    4.7048652790733803E-01 
   -6.3107262621475257E-02 
   -8.1146151808137001E-02 
   -6.3171541876158899E-01 
   -6.1449867072180098E-01 
   -1.1843147161467236E+00 
   -1.2003920037639291E+00 
   -1.7876559369458167E+00 
   -1.7730236939127162E+00 
   -2.3809154366513781E+00 
   -2.3938261929951650E+00 
    6.5028181824871218E+00 
    6.5092520642305232E+00 
    6.4452805061233880E+00 
    6.4387118102585603E+00 
    6.3734897739112633E+00 
    6.3804005471771541E+00 
    6.3144458271985187E+00 
    6.3070013428439875E+00 
    6.2390536452084060E+00 
    6.2472087468971518E+00 
    6.1784428514030472E+00 
    6.1694132303831033E+00 
    6.0978073818114282E+00 
    6.1078647152536591E+00 
    6.0351550757278245E+00 
    6.0239249690500927E+00 
    5.9474167159543017E+00 
    5.9599591067243809E+00 
    5.8818858295341414E+00 
    5.8678948366708896E+00 
    5.7849320478065005E+00 
    5.8005067196410440E+00 
    5.7153536009026116E+00 
    5.6980600063590776E+00 
    5.6067672545973446E+00 
    5.6259159334737383E+00 
    5.5316376119761603E+00 
    5.5104967818461370E+00 
    5.4086433458528163E+00 
    5.4319134065542016E+00 
    5.3260852115029600E+00 
    5.3005507392266038E+00 
    5.0448842439223300E+00 
    5.0728133221466880E+00 
    4.6713230437485489E+00 
    4.6408785905280592E+00 
    4.2283368275908071E+00 
    4.2614020429555532E+00 
    3.8421489778190008E+00 
    3.8063806061877394E+00 
    3.3740774929217099E+00 
    3.4125990898762106E+00 
    2.9717276148746024E+00 
    2.9304460318104777E+00 
    2.4744643592601898E+00 
    2.5184570466607847E+00 
    2.0516694233426476E+00 
    2.0050831966554465E+00 
    1.5212439462303338E+00 
    1.5702248191672805E+00 
    1.0729870134424717E+00 
    1.0219023314575346E+00 
    5.0605749128277944E-01 
    5.5885674463946078E-01 
    2.6811937380242512E-02 
   -2.7214369926978878E-02 
   -5.7872370836659759E-01 
   -5.2404720167486074E-01 
   -1.0944521043918354E+00 
   -1.1491317617319832E+00 
   -1.7389189156876572E+00 
   -1.6849242715751371E+00 
   -2.2957444283841286E+00 
   -2.3483613553567917E+00 
    6.5164619708884057E+00 
    6.5241654793803452E+00 
    6.4606957153371400E+00 
    6.4527000766028300E+00 
    6.3882840868024484E+00 
    6.3968745075259381E+00 
    6.3324953015232026E+00 
    6.3230295026483345E+00 
    6.2567113426488561E+00 
    6.2673117556526430E+00 
    6.2010433780053580E+00 
    6.1890678127834313E+00 
    6.1198030851491376E+00 
    6.1333796025559604E+00 
    6.0639820041076087E+00 
    6.0485888899146429E+00 
    5.9750648586627149E+00 
    5.9924847142527318E+00 
    5.9184932749681423E+00 
    5.8988376979063988E+00 
    5.8194793343920956E+00 
    5.8415822085396423E+00 
    5.7612915525408104E+00 
    5.7365241861710867E+00 
    5.6494657004930771E+00 
    5.6771225494873256E+00 
    5.5885326169513831E+00 
    5.5577522801733013E+00 
    5.4607827088937793E+00 
    5.4949296701438186E+00 
    5.3956658430432780E+00 
    5.3579011973755364E+00 
    5.1077672211427458E+00 
    5.1494056841269717E+00 
    4.7553690120722019E+00 
    4.7096004140827272E+00 
    4.3031759104344491E+00 
    4.3533237835947771E+00 
    3.9423294816355456E+00 
    3.8875706743300484E+00 
    3.4617865342934140E+00 
    3.5213566932698024E+00 
    3.0892838751675908E+00 
    3.0247508918737016E+00 
    2.5753213861748989E+00 
    2.6448977897386250E+00 
    2.1868996815070525E+00 
    2.1122961165328076E+00 
    1.6344312602281086E+00 
    1.7139198598130692E+00 
    1.2245437827212384E+00 
    1.1404679198434016E+00 
    6.2916957852151056E-01 
    7.1735267448742868E-01 
    1.9098066752516824E-01 
    9.9370377072256336E-02 
   -4.4996763293238401E-01 
   -3.5581211596188150E-01 
   -9.2405554677651147E-01 
   -1.0196929825399694E+00 
   -1.6104068411689032E+00 
   -1.5144852836755494E+00 
   -2.1274742177893309E+00 
   -2.2224185095343998E+00 
    6.5320274325278875E+00 
    6.5396550708292098E+00 
    6.4770610549227969E+00 
    6.4689423088206093E+00 
    6.4058593288188179E+00 
    6.4148781724907442E+00 
    6.3528334236842108E+00 