# vtk DataFile Version 2.0
Pressure Field Data 
ASCII 
DATASET UNSTRUCTURED_GRID 

POINTS 2401 float 

    0.0000000000000000E+00     0.0000000000000000E+00     0.0000000000000000E+00 
    1.0000000000000000E+00     0.0000000000000000E+00     0.0000000000000000E+00 
    1.0000000000000000E+00     1.0000000000000000E+00     0.0000000000000000E+00 
    0.0000000000000000E+00     1.0000000000000000E+00     0.0000000000000000E+00 
    5.0000000000000000E-01     0.0000000000000000E+00     0.0000000000000000E+00 
    5.0000000000000000E-01     1.0000000000000000E+00     0.0000000000000000E+00 
    1.0000000000000000E+00     8.0000000000000004E-01     0.0000000000000000E+00 
    8.2999999999999996E-01     8.0000000000000004E-01     0.0000000000000000E+00 
    6.6000000000000003E-01     2.0000000000000001E-01     0.0000000000000000E+00 
    3.4000000000000002E-01     8.0000000000000004E-01     0.0000000000000000E+00 
    1.7000000000000001E-01     2.0000000000000001E-01     0.0000000000000000E+00 
    0.0000000000000000E+00     2.0000000000000001E-01     0.0000000000000000E+00 
    1.7000000000000001E-01     0.0000000000000000E+00     0.0000000000000000E+00 
    1.7000000000000001E-01     1.0000000000000000E+00     0.0000000000000000E+00 
    3.4000000000000002E-01     1.0000000000000000E+00     0.0000000000000000E+00 
    3.4000000000000002E-01     0.0000000000000000E+00     0.0000000000000000E+00 
    6.6000000000000003E-01     0.0000000000000000E+00     0.0000000000000000E+00 
    6.6000000000000003E-01     1.0000000000000000E+00     0.0000000000000000E+00 
    8.2999999999999996E-01     1.0000000000000000E+00     0.0000000000000000E+00 
    8.2999999999999996E-01     0.0000000000000000E+00     0.0000000000000000E+00 
    5.0000000000000000E-01     5.0000000000000000E-01     0.0000000000000000E+00 
    2.1249999999956842E-02     0.0000000000000000E+00     0.0000000000000000E+00 
    4.2499999999891437E-02     0.0000000000000000E+00     0.0000000000000000E+00 
    6.3749999999835216E-02     0.0000000000000000E+00     0.0000000000000000E+00 
    8.4999999999781806E-02     0.0000000000000000E+00     0.0000000000000000E+00 
    1.0624999999981850E-01     0.0000000000000000E+00     0.0000000000000000E+00 
    1.2749999999986300E-01     0.0000000000000000E+00     0.0000000000000000E+00 
    1.4874999999992489E-01     0.0000000000000000E+00     0.0000000000000000E+00 
    1.9124999999996981E-01     0.0000000000000000E+00     0.0000000000000000E+00 
    2.1249999999991481E-01     0.0000000000000000E+00     0.0000000000000000E+00 
    2.3374999999986881E-01     0.0000000000000000E+00     0.0000000000000000E+00 
    2.5499999999978301E-01     0.0000000000000000E+00     0.0000000000000000E+00 
    2.7624999999983291E-01     0.0000000000000000E+00     0.0000000000000000E+00 
    2.9749999999984478E-01     0.0000000000000000E+00     0.0000000000000000E+00 
    3.1874999999992237E-01     0.0000000000000000E+00     0.0000000000000000E+00 
    3.5999999999990601E-01     0.0000000000000000E+00     0.0000000000000000E+00 
    3.7999999999987238E-01     0.0000000000000000E+00     0.0000000000000000E+00 
    3.9999999999983532E-01     0.0000000000000000E+00     0.0000000000000000E+00 
    4.1999999999977228E-01     0.0000000000000000E+00     0.0000000000000000E+00 
    4.3999999999985479E-01     0.0000000000000000E+00     0.0000000000000000E+00 
    4.5999999999993740E-01     0.0000000000000000E+00     0.0000000000000000E+00 
    4.7999999999992637E-01     0.0000000000000000E+00     0.0000000000000000E+00 
    5.1999999999986413E-01     0.0000000000000000E+00     0.0000000000000000E+00 
    5.3999999999977888E-01     0.0000000000000000E+00     0.0000000000000000E+00 
    5.5999999999991101E-01     0.0000000000000000E+00     0.0000000000000000E+00 
    5.7999999999984830E-01     0.0000000000000000E+00     0.0000000000000000E+00 
    5.9999999999982234E-01     0.0000000000000000E+00     0.0000000000000000E+00 
    6.1999999999979627E-01     0.0000000000000000E+00     0.0000000000000000E+00 
    6.4000000000006008E-01     0.0000000000000000E+00     0.0000000000000000E+00 
    6.8125000000013325E-01     0.0000000000000000E+00     0.0000000000000000E+00 
    7.0249999999992419E-01     0.0000000000000000E+00     0.0000000000000000E+00 
    7.2374999999979694E-01     0.0000000000000000E+00     0.0000000000000000E+00 
    7.4499999999969624E-01     0.0000000000000000E+00     0.0000000000000000E+00 
    7.6624999999979804E-01     0.0000000000000000E+00     0.0000000000000000E+00 
    7.8749999999989995E-01     0.0000000000000000E+00     0.0000000000000000E+00 
    8.0874999999990327E-01     0.0000000000000000E+00     0.0000000000000000E+00 
    8.5124999999976392E-01     0.0000000000000000E+00     0.0000000000000000E+00 
    8.7249999999979977E-01     0.0000000000000000E+00     0.0000000000000000E+00 
    8.9374999999979932E-01     0.0000000000000000E+00     0.0000000000000000E+00 
    9.1499999999980464E-01     0.0000000000000000E+00     0.0000000000000000E+00 
    9.3624999999989311E-01     0.0000000000000000E+00     0.0000000000000000E+00 
    9.5749999999990232E-01     0.0000000000000000E+00     0.0000000000000000E+00 
    9.7874999999995116E-01     0.0000000000000000E+00     0.0000000000000000E+00 
    1.0000000000000000E+00     3.3333333333269231E-02     0.0000000000000000E+00 
    1.0000000000000000E+00     6.6666666666543181E-02     0.0000000000000000E+00 
    1.0000000000000000E+00     9.9999999999825229E-02     0.0000000000000000E+00 
    1.0000000000000000E+00     1.3333333333306890E-01     0.0000000000000000E+00 
    1.0000000000000000E+00     1.6666666666630381E-01     0.0000000000000000E+00 
    1.0000000000000000E+00     1.9999999999953880E-01     0.0000000000000000E+00 
    1.0000000000000000E+00     2.3333333333277370E-01     0.0000000000000000E+00 
    1.0000000000000000E+00     2.6666666666600858E-01     0.0000000000000000E+00 
    1.0000000000000000E+00     2.9999999999924359E-01     0.0000000000000000E+00 
    1.0000000000000000E+00     3.3333333333247861E-01     0.0000000000000000E+00 
    1.0000000000000000E+00     3.6666666666571351E-01     0.0000000000000000E+00 
    1.0000000000000000E+00     3.9999999999894842E-01     0.0000000000000000E+00 
    1.0000000000000000E+00     4.3333333333236579E-01     0.0000000000000000E+00 
    1.0000000000000000E+00     4.6666666666577089E-01     0.0000000000000000E+00 
    1.0000000000000000E+00     4.9999999999918820E-01     0.0000000000000000E+00 
    1.0000000000000000E+00     5.3333333333261779E-01     0.0000000000000000E+00 
    1.0000000000000000E+00     5.6666666666602528E-01     0.0000000000000000E+00 
    1.0000000000000000E+00     5.9999999999943576E-01     0.0000000000000000E+00 
    1.0000000000000000E+00     6.3333333333291930E-01     0.0000000000000000E+00 
    1.0000000000000000E+00     6.6666666666631980E-01     0.0000000000000000E+00 
    1.0000000000000000E+00     6.9999999999979823E-01     0.0000000000000000E+00 
    1.0000000000000000E+00     7.3333333333322526E-01     0.0000000000000000E+00 
    1.0000000000000000E+00     7.6666666666661265E-01     0.0000000000000000E+00 
    1.0000000000000000E+00     8.0833333333330626E-01     0.0000000000000000E+00 
    1.0000000000000000E+00     8.1666666666661247E-01     0.0000000000000000E+00 
    1.0000000000000000E+00     8.2499999999993134E-01     0.0000000000000000E+00 
    1.0000000000000000E+00     8.3333333333322490E-01     0.0000000000000000E+00 
    1.0000000000000000E+00     8.4166666666654699E-01     0.0000000000000000E+00 
    1.0000000000000000E+00     8.4999999999985187E-01     0.0000000000000000E+00 
    1.0000000000000000E+00     8.5833333333313999E-01     0.0000000000000000E+00 
    1.0000000000000000E+00     8.6666666666642811E-01     0.0000000000000000E+00 
    1.0000000000000000E+00     8.7499999999973699E-01     0.0000000000000000E+00 
    1.0000000000000000E+00     8.8333333333307928E-01     0.0000000000000000E+00 
    1.0000000000000000E+00     8.9166666666652561E-01     0.0000000000000000E+00 
    1.0000000000000000E+00     8.9999999999982638E-01     0.0000000000000000E+00 
    1.0000000000000000E+00     9.0833333333325583E-01     0.0000000000000000E+00 
    1.0000000000000000E+00     9.1666666666657370E-01     0.0000000000000000E+00 
    1.0000000000000000E+00     9.2499999999995475E-01     0.0000000000000000E+00 
    1.0000000000000000E+00     9.3333333333322477E-01     0.0000000000000000E+00 
    1.0000000000000000E+00     9.4166666666655630E-01     0.0000000000000000E+00 
    1.0000000000000000E+00     9.4999999999988782E-01     0.0000000000000000E+00 
    1.0000000000000000E+00     9.5833333333324855E-01     0.0000000000000000E+00 
    1.0000000000000000E+00     9.6666666666660150E-01     0.0000000000000000E+00 
    1.0000000000000000E+00     9.7499999999990450E-01     0.0000000000000000E+00 
    1.0000000000000000E+00     9.8333333333325779E-01     0.0000000000000000E+00 
    1.0000000000000000E+00     9.9166666666665060E-01     0.0000000000000000E+00 
    9.7875000000011314E-01     1.0000000000000000E+00     0.0000000000000000E+00 
    9.5750000000014102E-01     1.0000000000000000E+00     0.0000000000000000E+00 
    9.3625000000023240E-01     1.0000000000000000E+00     0.0000000000000000E+00 
    9.1500000000028214E-01     1.0000000000000000E+00     0.0000000000000000E+00 
    8.9375000000020000E-01     1.0000000000000000E+00     0.0000000000000000E+00 
    8.7250000000011796E-01     1.0000000000000000E+00     0.0000000000000000E+00 
    8.5125000000005890E-01     1.0000000000000000E+00     0.0000000000000000E+00 
    8.0874999999986674E-01     1.0000000000000000E+00     0.0000000000000000E+00 
    7.8750000000007581E-01     1.0000000000000000E+00     0.0000000000000000E+00 
    7.6625000000020305E-01     1.0000000000000000E+00     0.0000000000000000E+00 
    7.4500000000030375E-01     1.0000000000000000E+00     0.0000000000000000E+00 
[...]
CELL_DATA 4608 
SCALARS Pressure float 1 
LOOKUP_TABLE default 

    2.6821165043119108E-04 
    5.2866304107009672E-04 
    3.7272915857414484E-04 
    9.3200423532155277E-04 
    7.6160939739864384E-04 
    1.4376357233377287E-03 
    2.2692454034415558E-03 
    1.5504204819219315E-03 
    5.0123445652012480E-04 
    1.0509004555403884E-03 
    6.5900804276271784E-04 
    2.0551067117485378E-03 
    2.3840511426383854E-03 
    3.5051440643084440E-03 
    3.4596637452034753E-03 
    4.8479252729952890E-03 
    4.7212711178543261E-03 
    3.3224680692169432E-03 
    3.1558508348130780E-03 
    2.3586518729777853E-03 
    2.0586509799962009E-03 
    1.4141351627616492E-03 
    7.5652492061089238E-04 
    1.4977646359041362E-03 
    1.8532786619333951E-03 
    9.8060616985711424E-04 
    5.8153745673186503E-04 
    4.7252583201802382E-04 
    9.6608614629569486E-04 
    5.1994689088267739E-04 
    3.5696526056224484E-04 
    2.3376713243425823E-04 
    1.1929343491719159E-03 
    2.2752302707080650E-03 
    2.6017393279087770E-03 
    3.1187179788442002E-03 
    3.9257718510313580E-03 
    5.1033782802948346E-03 
    7.0126855205240798E-03 
    4.6567663278034091E-03 
    4.2335310519805644E-03 
    5.8960265561972397E-03 
    6.1953219005727207E-03 
    7.4827542281178591E-03 
    5.9203266603083254E-03 
    8.0566287555123711E-03 
    8.6934000435690065E-03 
    9.8120566818206204E-03 
    9.0146655737393944E-03 
    6.6739840818010113E-03 
    5.9640569608370511E-03 
    5.3390771417356452E-03 
    4.0483768826489429E-03 
    3.0453761443924900E-03 
    1.5784634354319886E-03 
    3.6028980339167030E-03 
    3.3842532383255748E-03 
    1.7483471684074416E-03 
    9.4940978096550669E-04 
    8.6905513590300855E-04 
    2.6742257429979224E-03 
    1.3927258014740634E-03 
    7.8039002828524931E-04 
    6.8429800525820475E-04 
    1.9005265781868400E-03 
    3.6867919922759125E-03 
    4.4497887240207770E-03 
    4.8022486640788148E-03 
    6.5239107446381575E-03 
    7.9547250006280282E-03 
    1.0626217090010333E-02 
    7.0116270493642691E-03 
    7.3549488227539275E-03 
    9.8748010521920448E-03 
    1.0824803759776076E-02 
    1.1718952357427745E-02 
    8.4657364886436687E-03 
    1.1259359040562092E-02 
    1.2483274131357858E-02 
    1.3108059322694751E-02 
    1.1765957143097930E-02 
    8.8813548281009499E-03 
    7.7465726015647010E-03 
    7.4209837695540168E-03 
    5.3432655736974435E-03 
    4.1684235156774739E-03 
    2.1447970801028882E-03 
    5.1013641963197805E-03 
    4.3412967634073527E-03 
    2.2337891646747200E-03 
    1.1706067757151330E-03 
    1.1318864187528938E-03 
    3.9492880990889372E-03 
    2.0332229721562439E-03 
    1.0816414295752568E-03 
    1.0205564442659172E-03 
    2.2989441597632415E-03 
    4.4654504293687447E-03 
    5.5246374835508441E-03 
    5.6427492532742235E-03 
    7.9838257059257345E-03 
    9.4047447315247432E-03 
    1.2372710483491270E-02 
    8.1290511603898039E-03 
    9.1959141968798730E-03 
    1.2138986652308115E-02 
    1.3584930862681879E-02 
    1.3906830325061931E-02 
    9.5042323703821985E-03 
    1.2462800204614252E-02 
    1.4068269427077174E-02 
    1.4065443265352695E-02 
    1.2406400403122145E-02 
    9.4918686078663411E-03 
    8.1332761031851705E-03 
    8.1794749973990097E-03 
    5.6813500418698426E-03 
    4.5601229538717591E-03 
    2.3538363803334711E-03 
    5.6954822920736309E-03 
    4.5281244657099790E-03 
    2.3421988966311237E-03 
    1.2003261667172718E-03 
    1.2123806570215057E-03 
    4.5388943254944629E-03 
    2.3392278488725202E-03 
    1.2112654391628116E-03 
    1.1972226362023750E-03 
    2.3039712800296021E-03 
    4.4423781092319120E-03 
    5.5995071353374462E-03 
    5.4497471667927649E-03 
    7.9896119251019193E-03 
    9.1272650398845356E-03 
    1.1850212807579086E-02 
    7.7486445040239327E-03 
    9.3662794916218872E-03 
    1.2202139935832190E-02 
    1.3896136581052779E-02 
    1.3559776161303036E-02 
    8.7758574383934723E-03 
    1.1352524827269408E-02 
    1.3057708345832933E-02 
    1.2393364546244248E-02 
    1.0712791717701522E-02 
    8.3143680613727289E-03 
    6.9806117268171458E-03 
    7.4115658354041852E-03 
    4.9487149728254035E-03 
    4.1098851190912236E-03 
    2.1473663771352583E-03 
    5.2324851145642975E-03 
    3.8642683028291477E-03 
    2.0291403733338556E-03 
    1.0187286557708595E-03 
    1.0841701449827018E-03 
    4.3028364446487388E-03 
    2.2390169197968220E-03 
    1.1362451152467801E-03 
    1.1749644711307322E-03 
    1.8844066493859564E-03 
    3.5669637476483454E-03 
    4.5999331335118063E-03 
    4.1880213979581943E-03 
    6.4590661443120895E-03 
    7.0769698619892324E-03 
    9.0314063366898900E-03 
    5.8512743772785869E-03 
    7.7464160894226974E-03 
    9.9365845147786902E-03 
    1.1572257007339173E-02 
    1.0602071044928246E-02 
    6.3124133158162787E-03 
    8.0067336559026397E-03 
    9.4928113763734223E-03 
    8.2564398808283868E-03 
    6.8746087198023886E-03 
    5.4607691326462870E-03 
    4.4021395346605235E-03 
    5.1626864394184735E-03 
    3.1836779405857440E-03 
    2.8211000717058357E-03 
    1.5135799742399744E-03 
    3.7150878583049746E-03 
    2.3767613931532858E-03 
    1.2839743677195495E-03 
    6.1453005041471088E-04 
    7.3837484917988090E-04 
    3.2189865329789874E-03 
    1.7129130491125959E-03 
    8.4677774634121274E-04 
    9.3977271415042647E-04 
    8.5109256740339284E-04 
    1.8350380903224090E-03 
    1.0804213322194527E-03 
    3.7120001285089622E-03 
    2.3377309875537060E-03 
    4.7301143486796864E-03 
    6.6956510243770147E-03 
    5.4756725601495838E-03 
    1.3222649200422174E-03 
    2.7942449188280566E-03 
    1.5112141202191622E-03 
    5.4641976239151666E-03 
    8.2007171137645253E-03 
    1.0854242432016374E-02 
    9.5710876798268049E-03 
    1.4059360051801223E-02 
    1.5465929724957340E-02 
    1.1730813119371707E-02 
    1.1807292884027189E-02 
    8.6326380107822689E-03 
    8.9727531814547470E-03 
    6.5988170291778857E-03 
    4.7672060944705316E-03 
    6.3497568447033990E-03 
    8.9554161706044966E-03 
    6.7049391149567004E-03 
    6.6242518343651406E-03 
    4.8998965885339273E-03 
    4.2103346190076971E-03 
    2.8060593975618494E-03 
    3.1456259538399263E-03 
    1.4050354101762669E-03 
    8.5887035426112091E-03 
    1.1242925826295026E-02 
    1.1545921029249104E-02 
    1.4006917419551512E-02 
    1.4942526127397507E-02 
    1.8683346594825498E-02 
    2.4135639843958445E-02 
    1.7900263835544335E-02 
    1.5346269207449116E-02 
    2.0224193908673527E-02 
    2.2778607850775373E-02 
    2.6868509721648268E-02 
    2.1759858901452656E-02 
    2.7636372964922884E-02 
    3.0388881288940725E-02 
    3.3735768014329440E-02 
    3.1084996507996301E-02 
    2.4625769029428896E-02 
    2.3173509938426443E-02 
    2.0639107736700898E-02 
    1.8457421091995829E-02 
    1.5460364403895699E-02 
    1.2086875509193955E-02 
    1.6316754388696800E-02 
    1.7337708873772173E-02 
    1.3656385516374998E-02 
    1.2726783790080153E-02 
    1.1362096541587027E-02 
    1.3421387382631565E-02 
    1.0390776782003099E-02 
    9.8774044509456899E-03 
    8.2912040623992142E-03 
    1.5080005512432923E-02 
    1.9029972804884998E-02 
    2.0406800901261818E-02 
    2.2128665447746998E-02 
    2.5474886905852673E-02 
    2.9594673907143862E-02 
    3.6856744991739451E-02 
    2.7473009207180724E-02 
    2.7305585748917657E-02 
    3.4352878169655696E-02 
    3.8880734808612316E-02 
    4.1427977537421973E-02 
    3.1535013030419931E-02 
    3.8938888766020752E-02 
    4.3437522010582541E-02 
    4.5216828389231772E-02 
    4.0891378352888169E-02 
    3.3182058122696478E-02 
    3.0554485208875951E-02 
    2.9157590318861476E-02 
    2.4826791004276996E-02 
    2.1770694681460381E-02 
    1.7418631418419039E-02 
    2.3603574537998703E-02 
    2.2792196757268360E-02 
    1.8306079190951410E-02 
    1.6670813906292797E-02 
    1.5938696848889794E-02 
    2.0513069993878211E-02 
    1.6339214915546324E-02 
    1.5029500214798111E-02 
    1.3954429321035092E-02 
    1.8990264560009379E-02 
    2.3563993957452720E-02 
    2.5786677712218820E-02 
    2.6456980081105086E-02 
    3.1643890723782736E-02 
    3.5488502836110408E-02 
    4.3485045964176960E-02 
    3.2366221185257754E-02 
    3.4561100988597326E-02 
    4.2585576182256391E-02 
    4.8454003795924960E-02 
    4.9319117324354456E-02 
    3.6003840939057841E-02 
    4.3892179424273481E-02 
    4.9584671287491749E-02 
    4.9517713512728628E-02 
    4.4049918073020305E-02 
    3.6156689007517340E-02 
    3.2720276996308056E-02 
    3.2716357516378497E-02 
    2.6895382556960667E-02 
    2.4304240179283704E-02 
    1.9708336657913050E-02 
    2.6826136933116362E-02 
    2.4260859669841706E-02 
    1.9729305691980212E-02 
    1.7655020895333967E-02 
    1.7713302504648240E-02 
    2.4070857491154313E-02 
    1.9460353846976863E-02 
    1.7565560111685141E-02 
    1.7215944540842659E-02 
    1.9519667377844330E-02 
    2.3935708766507774E-02 
    2.6660968833592175E-02 
    2.6107870321914334E-02 
    3.2367138677754287E-02 
    3.5307454624611906E-02 
    4.2887224977741445E-02 
    3.1614141963641401E-02 
    3.5972841878702727E-02 
    4.3859114974663049E-02 
    5.0470243391735864E-02 
    4.9375738170408218E-02 
    3.4199069400503795E-02 
    4.1385006178040112E-02 
    4.7658265786744869E-02 
    4.5533559307487814E-02 
    3.9530155020189389E-02 
    3.2690703505664359E-02 
    2.8946825896936756E-02 
    3.0464468935200689E-02 
    2.4049976407355289E-02 
    2.2424743381093210E-02 
    1.8401796910601120E-02 
    2.5234316662088752E-02 
    2.1246825631612926E-02 
    1.7498592944375946E-02 
    1.5343687163566433E-02 
    1.6229166609796675E-02 
    2.3323302083714803E-02 
    1.9076926288040280E-02 
    1.6912278328763714E-02 
    1.7388226525178171E-02 
    1.6374026990788104E-02 
    1.9796921349891167E-02 
    2.2563040364479370E-02 
    2.0775528907054253E-02 
    2.7065912547698662E-02 
    2.8474141152656951E-02 
    3.4277656073578411E-02 
    2.4805961250110004E-02 
    3.0812766809705183E-02 
    3.7260837984053413E-02 
    4.3967468955460332E-02 
    4.0751638592931072E-02 
    2.5720439453310623E-02 
    3.0777127800032944E-02 
    3.6922542473273923E-02 
    3.2649511978529056E-02 
    2.6886113504399456E-02 
    2.2601944775041960E-02 
    1.9169908008972253E-02 
    2.2189074109384144E-02 
    1.6348072333514485E-02 
    1.6122938454137065E-02 
    1.3501003204039269E-02 
    1.8701515223334325E-02 
    1.3924911806436374E-02 
    1.1780249823366035E-02 
    9.9658419925209851E-03 
    1.1560374244781707E-02 
    1.8083873348637591E-02 
    1.5037146041511629E-02 
    1.2997659591114930E-02 
    1.4263151851733852E-02 
    2.9834536807043701E-03 
    4.8040851461761576E-03 
    2.1945987371152879E-03 
    8.4020067255115571E-03 
    3.3737288978731468E-03 
    5.6886162223467387E-03 
    5.1599515579460464E-03 
    7.9907190445541593E-03 
    1.5442650042406091E-03 
    2.2708948654338798E-03 
    1.0727748570844003E-03 
    3.6240453418128413E-03 
    9.2721293064039756E-03 
    7.4733327453406634E-03 
    5.6897742009315438E-03 
    7.0405486452122523E-03 
    8.5644310138789370E-03 
    1.0834480521325310E-02 
    1.2360169695399659E-02 
    1.1068866790176740E-02 
    1.3989349203273493E-02 
    1.2972969141691479E-02 
    1.1765997306404909E-02 
    1.1821346627082341E-02 
    1.5556634141728545E-02 
    1.5624271086725247E-02 
    1.6515928473434548E-02 
    1.2179888248237590E-02 
    1.0274658830032340E-02 
    8.1500768824741554E-03 
    8.2135134595339963E-03 
    4.4952804522263891E-03 
    2.1334025084427929E-02 
    1.9691297367190275E-02 
    1.6756887087778644E-02 
    1.8557893877382603E-02 
    1.4262997784222242E-02 
    1.2632916698504720E-02 
    8.3563741041209061E-03 
    1.4579109182005862E-02 
    1.2151915097402266E-02 
    9.0858390708783709E-03 
    7.3928811060847144E-03 
    6.6785721226055028E-03 
    1.1895573531394948E-02 
    6.6415429375100143E-03 
    4.9462908241745263E-03 
    2.3003657708316472E-03 
    4.4447676675576919E-03 
    1.0814500914447855E-02 
    1.3479392573753524E-02 
    1.3942099874228564E-02 
    1.8852159474363556E-02 
    2.0990866225731319E-02 
    2.4869608605860724E-02 
    1.8611874904121251E-02 
    2.1718911220329207E-02 
    2.6882509648706338E-02 
    3.2780217074171614E-02 
    3.0173465134987629E-02 
    2.0316170260283928E-02 
    2.3011499811258246E-02 
    2.7705775579203423E-02 
    2.5232621714177256E-02 
    3.0706164652750667E-02 
    2.2651572293935607E-02 
    1.9168239441249957E-02 
    1.7074000018258817E-02 
    1.1933883151984348E-02 
    5.8161803826669023E-03 
    3.4213547735054695E-03 
    8.2119936251609515E-03 
    9.4924782759746584E-03 
    1.3893516334209655E-03 
    9.0350916790582492E-04 
    5.7575838971742899E-03 
    9.8836954171377389E-04 
    9.0771533155768469E-03 
    1.1424362131869592E-02 
    1.7782531386193845E-02 
    1.4210809530841473E-02 
    2.5197944567278974E-03 
    2.1679151232823490E-03 
    4.2462843744126566E-03 
    1.3273831818331971E-02 
    1.9545442358183535E-02 
    3.0589929968070251E-02 
    1.4664414333599551E-02 
    1.8609690906968568E-02 
    3.0990639005213705E-02 
    4.0410561759239932E-02 
    3.9488374542045207E-02 
    2.0427023968673463E-02 
    3.0179288306905666E-02 
    3.8536663821202105E-02 
    3.7446516003267732E-02 
    3.2242786953451646E-02 
    1.6087863347081843E-02 
    1.1005519857717139E-02 
    4.9317714074257335E-03 
    2.7781965932585084E-03 
    1.3769233899333932E-02 
    2.8456932482759378E-02 
    1.0126574163198288E-02 
    6.4329110019136215E-03 
    2.0498115154939989E-02 
    2.4093685939117426E-02 
    3.2109333472860657E-02 
    2.1826082575943428E-02 
    3.6777637816460595E-02 
    4.0402564521366258E-02 
    4.8869733685959815E-02 
    4.3467888227535667E-02 
    2.6963867433885236E-02 
    1.9991389778626856E-02 
    1.6692657032086111E-02 
    2.6874165800680472E-03 
    8.1947740666346580E-03 
    2.7845991054826602E-02 
    2.0484697416855990E-04 
    5.6374130704095471E-03 
    2.6423845172001748E-02 
    3.9735881034220877E-02 
    4.0763271823316599E-02 
    1.0668392658909898E-02 
    2.9142196278998528E-02 
    4.1618142738416852E-02 
    4.2219729886709384E-02 
    2.4800760314007853E-02 
    9.3068061974066474E-05 
    7.2813566279015807E-03 
    1.6455899013160302E-02 
    2.7493693182432943E-02 
    4.2246147717124538E-02 
    6.0966682548678097E-02 
    3.7032783741782371E-02 
    3.2792477526533803E-02 
    5.1748557426089858E-02 
    5.6843923162122723E-02 
    6.6040299459606433E-02 
    5.1760202694174251E-02 
    6.9950148633007081E-02 
    7.4886321561839053E-02 
    8.3353067542768944E-02 
    7.6406112316827812E-02 
    5.7230640599556737E-02 
    4.8480797680178878E-02 
    4.4692581035044032E-02 
    2.6531814320483071E-02 
    1.1741321636373592E-02 
    1.6166226029686870E-02 
    2.2682555387010139E-02 
    1.5485294087961954E-02 
    1.2957355631466327E-02 
    2.9998668183382038E-02 
    3.3061742462286825E-02 
    8.0422128901725953E-03 
    1.9176477902828226E-02 
    3.5847106848851507E-02 
    3.8303064521418462E-02 
    8.6147388622950238E-03 
    2.3457644910462816E-02 
    3.2646120552579205E-02 
    4.3181470163429991E-02 
    5.7159849985788325E-02 
    7.3469309212586209E-02 
    9.3632880786655104E-02 
    6.6846835517205661E-02 
    6.3966988542655479E-02 
    8.5189436388210305E-02 
    9.1271633438481992E-02 
    9.9521176053526172E-02 
    8.2320926487196022E-02 
    1.0134164987791949E-01 
    1.0687957287422722E-01 
    1.1332842055093606E-01 
    1.0580787483102061E-01 
    8.6593825181085271E-02 
    7.6953376611045732E-02 
    7.3644138044177576E-02 
    5.3360018162739220E-02 
    3.6727616014483933E-02 
    3.8364893215620532E-03 
    4.9515247468730317E-02 
    4.0786507400831062E-02 
    8.7084421808226176E-03 
    1.0904928925623836E-02 
    1.6099260731541443E-02 
    3.2526053702267688E-02 
    7.5918966786087116E-04 
    2.0885312000012979E-02 
    2.5243874317126103E-02 
    9.2545928046913056E-04 
    8.7169483816815219E-04 
    3.3878148158607638E-04 
    5.6174552443344350E-04 
    7.4083910487479643E-05 
    1.0626880038373532E-03 
    2.6234142379755743E-03 
    9.9437991003897830E-04 
    1.0514784062909052E-04 
    7.9261908369539225E-04 
    4.5278327655906905E-04 
    2.2784853436173813E-03 
    2.9123406688906506E-03 
    5.2996188633641639E-03 
    4.8242525522750601E-03 
    8.4980103452167444E-03 
    8.8617073221156084E-03 
    5.2774684404960359E-03 
    4.5873550308245803E-03 
    2.7246626165126353E-03 
    1.1547386027489781E-03 
    7.8419806018922844E-04 
    2.8940519808667020E-03 
    9.7268937690325741E-05 
    1.7012104847177745E-04 
    2.9355982961409288E-03 
    4.2438399884379974E-03 
    4.0243305568475052E-03 
    1.1046744663333191E-03 
    2.2401832915419778E-03 
    3.0896804668380101E-03 
    1.6897684916849648E-03 
    1.9981064328546128E-03 
    2.7603675453073961E-03 
    3.2727022458971522E-03 
    7.9949886236156398E-03 
    8.2648644626909795E-03 
    1.3947362420606679E-02 
    1.9912991597427876E-02 
    1.4210323773296951E-02 
    8.3043918735061228E-03 
    1.3319827372037463E-02 
    1.2843938867507509E-02 
    1.9116052287231344E-02 
    2.1285567307576359E-02 
    2.8075117812447759E-02 
    2.6849162153366579E-02 
    3.6033972909114032E-02 
    3.6636749556808401E-02 
    2.8071702182177749E-02 
    2.6584657185785121E-02 
    2.1000549113259714E-02 
    1.7789969237947623E-02 
    1.1181733797862303E-02 
    3.5646906518385646E-03 
    1.2949851682787117E-02 
    1.6011653908665491E-02 
    7.3993055393072882E-03 
    5.2603829545297409E-03 
    1.5006217836728841E-03 
    7.1611281821271633E-03 
    5.7850482298649197E-04 
    1.3302046783663646E-03 
    3.2737692001344743E-03 
    1.3414490936661527E-02 
    2.4303220677999338E-02 
    2.4781469023592351E-02 
    3.5171997880162786E-02 
    3.5532514512448321E-02 
    4.6186163592757068E-02 
    5.6163229966110562E-02 
    4.6375582610081234E-02 
    3.5584627121357348E-02 
    4.5576656991174747E-02 
    4.4777281960876825E-02 
    5.5049736017266038E-02 
    5.7561408099151334E-02 
    6.7392544701722845E-02 
    6.5845237229679277E-02 
    7.6965163627124467E-02 
    7.7651247138889712E-02 
    6.6664454820246966E-02 
    6.4316232115759098E-02 
    5.6699726170356013E-02 
    5.1318364165089392E-02 
    4.0751498307055378E-02 
    2.7253527755694618E-02 
    4.3806715528100559E-02 
    4.8368647336046844E-02 
    3.4385132361608561E-02 
    3.0843403318383700E-02 
    2.3694215229207838E-02 
    3.3600271691437200E-02 
    2.0682073289621572E-02 
    1.7212130411272453E-02 
    1.1385457424986312E-02 
    4.4284238348532234E-02 
    6.0248774427837715E-02 
    6.1362270934868568E-02 
    7.4118583551272543E-02 
    7.5618108304166487E-02 
    8.7442107165149108E-02 
    9.6739995096111531E-02 
    8.7254864702052126E-02 
    7.6112344433810764E-02 
    8.7254037473315615E-02 
    8.6122930750776261E-02 
    9.5164782131330616E-02 
    9.8084832335496586E-02 
    1.0550222307453661E-01 
    1.0336224956439288E-01 
    1.1046665983177162E-01 
    1.1232852831204643E-01 
    1.0562838767798333E-01 
    1.0371721455938443E-01 
    9.7046769990431936E-02 
    9.1098586814831739E-02 
    7.9574001609846290E-02 
    6.2671250931387257E-02 
    8.3485497482747584E-02 
    8.7533307918442382E-02 
    7.1040622237923401E-02 
    6.6136410102658916E-02 
    5.7569832009904398E-02 
    7.1566731495976033E-02 
    5.4344135573641261E-02 
    4.9162581719103926E-02 
    4.0891086263427856E-02 
    8.2189730788080118E-02 
    9.9468714044052442E-02 
    1.0101941415661120E-01 
    1.1185640311990996E-01 
    1.1319017459299674E-01 
    1.2025127382493728E-01 
    1.2034553166581508E-01 