# vtk DataFile Version 2.0
Pressure Field Data 
ASCII 
DATASET UNSTRUCTURED_GRID 

POINTS 16641 float 

    0.0000000000000000E+00     0.0000000000000000E+00     0.0000000000000000E+00 
    1.0000000000000000E+00     0.0000000000000000E+00     0.0000000000000000E+00 
    1.0000000000000000E+00     1.0000000000000000E+00     0.0000000000000000E+00 
    0.0000000000000000E+00     1.0000000000000000E+00     0.0000000000000000E+00 
    7.8124999999851586E-03     0.0000000000000000E+00     0.0000000000000000E+00 
    1.5624999999970480E-02     0.0000000000000000E+00     0.0000000000000000E+00 
    2.3437499999955470E-02     0.0000000000000000E+00     0.0000000000000000E+00 
    3.1249999999940450E-02     0.0000000000000000E+00     0.0000000000000000E+00 
    3.9062499999923402E-02     0.0000000000000000E+00     0.0000000000000000E+00 
    4.6874999999906353E-02     0.0000000000000000E+00     0.0000000000000000E+00 
    5.4687499999889637E-02     0.0000000000000000E+00     0.0000000000000000E+00 
    6.2499999999872928E-02     0.0000000000000000E+00     0.0000000000000000E+00 
    7.0312499999860278E-02     0.0000000000000000E+00     0.0000000000000000E+00 
    7.8124999999847636E-02     0.0000000000000000E+00     0.0000000000000000E+00 
    8.5937499999835673E-02     0.0000000000000000E+00     0.0000000000000000E+00 
    9.3749999999823710E-02     0.0000000000000000E+00     0.0000000000000000E+00 
    1.0156249999981180E-01     0.0000000000000000E+00     0.0000000000000000E+00 
    1.0937499999979980E-01     0.0000000000000000E+00     0.0000000000000000E+00 
    1.1718749999978650E-01     0.0000000000000000E+00     0.0000000000000000E+00 
    1.2499999999977310E-01     0.0000000000000000E+00     0.0000000000000000E+00 
    1.3281249999975170E-01     0.0000000000000000E+00     0.0000000000000000E+00 
    1.4062499999973019E-01     0.0000000000000000E+00     0.0000000000000000E+00 
    1.4843749999970740E-01     0.0000000000000000E+00     0.0000000000000000E+00 
    1.5624999999968461E-01     0.0000000000000000E+00     0.0000000000000000E+00 
    1.6406249999966180E-01     0.0000000000000000E+00     0.0000000000000000E+00 
    1.7187499999963901E-01     0.0000000000000000E+00     0.0000000000000000E+00 
    1.7968749999961620E-01     0.0000000000000000E+00     0.0000000000000000E+00 
    1.8749999999959341E-01     0.0000000000000000E+00     0.0000000000000000E+00 
    1.9531249999957059E-01     0.0000000000000000E+00     0.0000000000000000E+00 
    2.0312499999954781E-01     0.0000000000000000E+00     0.0000000000000000E+00 
    2.1093749999952499E-01     0.0000000000000000E+00     0.0000000000000000E+00 
    2.1874999999950220E-01     0.0000000000000000E+00     0.0000000000000000E+00 
    2.2656249999947939E-01     0.0000000000000000E+00     0.0000000000000000E+00 
    2.3437499999945660E-01     0.0000000000000000E+00     0.0000000000000000E+00 
    2.4218749999943379E-01     0.0000000000000000E+00     0.0000000000000000E+00 
    2.4999999999941089E-01     0.0000000000000000E+00     0.0000000000000000E+00 
    2.5781249999938821E-01     0.0000000000000000E+00     0.0000000000000000E+00 
    2.6562499999936529E-01     0.0000000000000000E+00     0.0000000000000000E+00 
    2.7343749999934253E-01     0.0000000000000000E+00     0.0000000000000000E+00 
    2.8124999999931971E-01     0.0000000000000000E+00     0.0000000000000000E+00 
    2.8906249999929701E-01     0.0000000000000000E+00     0.0000000000000000E+00 
    2.9687499999927408E-01     0.0000000000000000E+00     0.0000000000000000E+00 
    3.0468749999925132E-01     0.0000000000000000E+00     0.0000000000000000E+00 
    3.1249999999922851E-01     0.0000000000000000E+00     0.0000000000000000E+00 
    3.2031249999920580E-01     0.0000000000000000E+00     0.0000000000000000E+00 
    3.2812499999918288E-01     0.0000000000000000E+00     0.0000000000000000E+00 
    3.3593749999916012E-01     0.0000000000000000E+00     0.0000000000000000E+00 
    3.4374999999913730E-01     0.0000000000000000E+00     0.0000000000000000E+00 
    3.5156249999911449E-01     0.0000000000000000E+00     0.0000000000000000E+00 
    3.5937499999909173E-01     0.0000000000000000E+00     0.0000000000000000E+00 
    3.6718749999906891E-01     0.0000000000000000E+00     0.0000000000000000E+00 
    3.7499999999904610E-01     0.0000000000000000E+00     0.0000000000000000E+00 
    3.8281249999902328E-01     0.0000000000000000E+00     0.0000000000000000E+00 
    3.9062499999900052E-01     0.0000000000000000E+00     0.0000000000000000E+00 
    3.9843749999897771E-01     0.0000000000000000E+00     0.0000000000000000E+00 
    4.0624999999895489E-01     0.0000000000000000E+00     0.0000000000000000E+00 
    4.1406249999893208E-01     0.0000000000000000E+00     0.0000000000000000E+00 
    4.2187499999890932E-01     0.0000000000000000E+00     0.0000000000000000E+00 
    4.2968749999888650E-01     0.0000000000000000E+00     0.0000000000000000E+00 
    4.3749999999886358E-01     0.0000000000000000E+00     0.0000000000000000E+00 
    4.4531249999884093E-01     0.0000000000000000E+00     0.0000000000000000E+00 
    4.5312499999881811E-01     0.0000000000000000E+00     0.0000000000000000E+00 
    4.6093749999879519E-01     0.0000000000000000E+00     0.0000000000000000E+00 
    4.6874999999877243E-01     0.0000000000000000E+00     0.0000000000000000E+00 
    4.7656249999874972E-01     0.0000000000000000E+00     0.0000000000000000E+00 
    4.8437499999872691E-01     0.0000000000000000E+00     0.0000000000000000E+00 
    4.9218749999870948E-01     0.0000000000000000E+00     0.0000000000000000E+00 
    4.9999999999869210E-01     0.0000000000000000E+00     0.0000000000000000E+00 
    5.0781249999870726E-01     0.0000000000000000E+00     0.0000000000000000E+00 
    5.1562499999872247E-01     0.0000000000000000E+00     0.0000000000000000E+00 
    5.2343749999874301E-01     0.0000000000000000E+00     0.0000000000000000E+00 
    5.3124999999876366E-01     0.0000000000000000E+00     0.0000000000000000E+00 
    5.3906249999878431E-01     0.0000000000000000E+00     0.0000000000000000E+00 
    5.4687499999880484E-01     0.0000000000000000E+00     0.0000000000000000E+00 
    5.5468749999882538E-01     0.0000000000000000E+00     0.0000000000000000E+00 
    5.6249999999884603E-01     0.0000000000000000E+00     0.0000000000000000E+00 
    5.7031249999886668E-01     0.0000000000000000E+00     0.0000000000000000E+00 
    5.7812499999888733E-01     0.0000000000000000E+00     0.0000000000000000E+00 
    5.8593749999890798E-01     0.0000000000000000E+00     0.0000000000000000E+00 
    5.9374999999892852E-01     0.0000000000000000E+00     0.0000000000000000E+00 
    6.0156249999894906E-01     0.0000000000000000E+00     0.0000000000000000E+00 
    6.0937499999896971E-01     0.0000000000000000E+00     0.0000000000000000E+00 
    6.1718749999899036E-01     0.0000000000000000E+00     0.0000000000000000E+00 
    6.2499999999901090E-01     0.0000000000000000E+00     0.0000000000000000E+00 
    6.3281249999903144E-01     0.0000000000000000E+00     0.0000000000000000E+00 
    6.4062499999905209E-01     0.0000000000000000E+00     0.0000000000000000E+00 
    6.4843749999907274E-01     0.0000000000000000E+00     0.0000000000000000E+00 
    6.5624999999909339E-01     0.0000000000000000E+00     0.0000000000000000E+00 
    6.6406249999911404E-01     0.0000000000000000E+00     0.0000000000000000E+00 
    6.7187499999913458E-01     0.0000000000000000E+00     0.0000000000000000E+00 
    6.7968749999915512E-01     0.0000000000000000E+00     0.0000000000000000E+00 
    6.8749999999917577E-01     0.0000000000000000E+00     0.0000000000000000E+00 
    6.9531249999919642E-01     0.0000000000000000E+00     0.0000000000000000E+00 
    7.0312499999921696E-01     0.0000000000000000E+00     0.0000000000000000E+00 
    7.1093749999923750E-01     0.0000000000000000E+00     0.0000000000000000E+00 
    7.1874999999925815E-01     0.0000000000000000E+00     0.0000000000000000E+00 
    7.2656249999927880E-01     0.0000000000000000E+00     0.0000000000000000E+00 
    7.3437499999929945E-01     0.0000000000000000E+00     0.0000000000000000E+00 
    7.4218749999932010E-01     0.0000000000000000E+00     0.0000000000000000E+00 
    7.4999999999934064E-01     0.0000000000000000E+00     0.0000000000000000E+00 
    7.5781249999936118E-01     0.0000000000000000E+00     0.0000000000000000E+00 
    7.6562499999938183E-01     0.0000000000000000E+00     0.0000000000000000E+00 
    7.7343749999940248E-01     0.0000000000000000E+00     0.0000000000000000E+00 
    7.8124999999942302E-01     0.0000000000000000E+00     0.0000000000000000E+00 
    7.8906249999944356E-01     0.0000000000000000E+00     0.0000000000000000E+00 
    7.9687499999946421E-01     0.0000000000000000E+00     0.0000000000000000E+00 
    8.0468749999948486E-01     0.0000000000000000E+00     0.0000000000000000E+00 
    8.1249999999950551E-01     0.0000000000000000E+00     0.0000000000000000E+00 
    8.2031249999952616E-01     0.0000000000000000E+00     0.0000000000000000E+00 
    8.2812499999954670E-01     0.0000000000000000E+00     0.0000000000000000E+00 
    8.3593749999956724E-01     0.0000000000000000E+00     0.0000000000000000E+00 
    8.4374999999958789E-01     0.0000000000000000E+00     0.0000000000000000E+00 
    8.5156249999960854E-01     0.0000000000000000E+00     0.0000000000000000E+00 
    8.5937499999962907E-01     0.0000000000000000E+00     0.0000000000000000E+00 
    8.6718749999964961E-01     0.0000000000000000E+00     0.0000000000000000E+00 
    8.7499999999967026E-01     0.0000000000000000E+00     0.0000000000000000E+00 
    8.8281249999969091E-01     0.0000000000000000E+00     0.0000000000000000E+00 
    8.9062499999971156E-01     0.0000000000000000E+00     0.0000000000000000E+00 
    8.9843749999973221E-01     0.0000000000000000E+00     0.0000000000000000E+00 
    9.0624999999975275E-01     0.0000000000000000E+00     0.0000000000000000E+00 
[...]
CELL_DATA 16384 
SCALARS Pressure float 1 
LOOKUP_TABLE default 

    1.0040316852707558E+00 
    1.0117909115698851E+00 
    1.0117611620213718E+00 
    1.0039405940892521E+00 
    1.0039177910150381E+00 
    1.0117404940384300E+00 
    1.0117282800196081E+00 
    1.0039104241966172E+00 
    1.0039069659220397E+00 
    1.0117201411307604E+00 
    1.0117136231511059E+00 
    1.0039045979695866E+00 
    1.0039025140740532E+00 
    1.0117075676444571E+00 
    1.0117014295975106E+00 
    1.0039004370576528E+00 
    1.0038982532062115E+00 
    1.0116949401560098E+00 
    1.0116879582282132E+00 
    1.0038959086236323E+00 
    1.0038933748671330E+00 
    1.0116804051105122E+00 
    1.0116722344636300E+00 
    1.0038906357045734E+00 
    1.0038876813210313E+00 
    1.0116634177394404E+00 
    1.0116539366930470E+00 
    1.0038845055186090E+00 
    1.0038811042544464E+00 
    1.0116437793255988E+00 
    1.0116329375792386E+00 
    1.0038774748295645E+00 
    1.0038736154160688E+00 
    1.0116214059718651E+00 
    1.0116091807585921E+00 
    1.0038695247700287E+00 
    1.0038652020509315E+00 
    1.0115962594000281E+00 
    1.0115826402155363E+00 
    1.0038606467046789E+00 
    1.0038558583857506E+00 
    1.0115683221514202E+00 
    1.0115533046224821E+00 
    1.0038508369042001E+00 
    1.0038455821888124E+00 
    1.0115375874015509E+00 
    1.0115211705410698E+00 
    1.0038400942610173E+00 
    1.0038343732160981E+00 
    1.0115040543165179E+00 
    1.0114862391849888E+00 
    1.0038284192094629E+00 
    1.0038222324464574E+00 
    1.0114677257544358E+00 
    1.0114485147605652E+00 
    1.0038158131747255E+00 
    1.0038091616783960E+00 
    1.0114286070492562E+00 
    1.0114080035630553E+00 
    1.0038022782736229E+00 
    1.0037951633051247E+00 
    1.0113867053306858E+00 
    1.0113647134588262E+00 
    1.0037878171434687E+00 
    1.0037802401829274E+00 
    1.0113420291256048E+00 
    1.0113186535754100E+00 
    1.0037724328397661E+00 
    1.0037643955508693E+00 
    1.0112945881147200E+00 
    1.0112698341087132E+00 
    1.0037561287726211E+00 
    1.0037476329799977E+00 
    1.0112443929785062E+00 
    1.0112182661988758E+00 
    1.0037389086658135E+00 
    1.0037299563401010E+00 
    1.0111914552963683E+00 
    1.0111639618477208E+00 
    1.0037207765295875E+00 
    1.0037113697772571E+00 
    1.0111357874785318E+00 
    1.0111069338621324E+00 
    1.0037017366419807E+00 
    1.0036918776981967E+00 
    1.0110774027186227E+00 
    1.0110471958140388E+00 
    1.0036817935356348E+00 
    1.0036714847590800E+00 
    1.0110163149596316E+00 
    1.0109847620112362E+00 
    1.0036609519881632E+00 
    1.0036501958571760E+00 
    1.0109525388687111E+00 
    1.0109196474754434E+00 
    1.0036392170149089E+00 
    1.0036280161245010E+00 
    1.0108860898179046E+00 
    1.0108518679252465E+00 
    1.0036165938633095E+00 
    1.0036049509227858E+00 
    1.0108169838689307E+00 
    1.0107814397623960E+00 
    1.0035930880083639E+00 
    1.0035810058393579E+00 
    1.0107452377607395E+00 
    1.0107083800604257E+00 
    1.0035687051488631E+00 
    1.0035561866836651E+00 
    1.0106708688990109E+00 
    1.0106327065548806E+00 
    1.0035434512041528E+00 
    1.0035304994842345E+00 
    1.0105938953469975E+00 
    1.0105544376346653E+00 
    1.0035173323112605E+00 
    1.0035039504859427E+00 
    1.0105143358172934E+00 
    1.0104735923341697E+00 
    1.0034903548222811E+00 
    1.0034765461474913E+00 
    1.0104322096642440E+00 
    1.0103901903259078E+00 
    1.0034625253019294E+00 
    1.0034482931390236E+00 
    1.0103475368767807E+00 
    1.0103042519135006E+00 
    1.0034338505252021E+00 
    1.0034191983398231E+00 
    1.0102603380715105E+00 
    1.0102157980248496E+00 
    1.0034043374751067E+00 
    1.0033892688360584E+00 
    1.0101706344859420E+00 
    1.0101248502053881E+00 
    1.0033739933404078E+00 
    1.0033585119185340E+00 
    1.0100784479717517E+00 
    1.0100314306113434E+00 
    1.0033428255133892E+00 
    1.0033269350804326E+00 
    1.0099838009880053E+00 
    1.0099355620028909E+00 
    1.0033108415875525E+00 
    1.0032945460149989E+00 
    1.0098867165942409E+00 
    1.0098372677371548E+00 
    1.0032780493552960E+00 
    1.0032613526131704E+00 
    1.0097872184433561E+00 
    1.0097365717609554E+00 
    1.0032444568054755E+00 
    1.0032273629610933E+00 
    1.0096853307741984E+00 
    1.0096334986032158E+00 
    1.0032100721208685E+00 
    1.0031925853375039E+00 
    1.0095810784037549E+00 
    1.0095280733669074E+00 
    1.0031749036754769E+00 
    1.0031570282109399E+00 
    1.0094744867188206E+00 
    1.0094203217203921E+00 
    1.0031389600316194E+00 
    1.0031207002367017E+00 
    1.0093655816669540E+00 
    1.0093102698879335E+00 
    1.0031022499367348E+00 
    1.0030836102534848E+00 
    1.0092543897464876E+00 
    1.0091979446391182E+00 
    1.0030647823198229E+00 
    1.0030457672795732E+00 
    1.0091409379952452E+00 
    1.0090833732767481E+00 
    1.0030265662873543E+00 
    1.0030071805084138E+00 
    1.0090252539774571E+00 
    1.0089665836225929E+00 
    1.0029876111184297E+00 
    1.0029678593033018E+00 
    1.0089073657681320E+00 
    1.0088476040000949E+00 
    1.0029479262589007E+00 
    1.0029278131907933E+00 
    1.0087873019337312E+00 
    1.0087264632125834E+00 
    1.0029075213139182E+00 
    1.0028870518522108E+00 
    1.0086650915073907E+00 
    1.0086031905148038E+00 
    1.0028664060381554E+00 
    1.0028455851122613E+00 
    1.0085407639558575E+00 
    1.0084778155741356E+00 
    1.0028245903224198E+00 
    1.0028034229231333E+00 
    1.0084143491335451E+00 
    1.0083503684155866E+00 
    1.0027820841745569E+00 
    1.0027605753413225E+00 
    1.0082858772159762E+00 
    1.0082208793404079E+00 
    1.0027388976910392E+00 
    1.0027170524924063E+00 
    1.0081553785991977E+00 
    1.0080893788004235E+00 
    1.0026950410127875E+00 
    1.0026728645150449E+00 
    1.0080228837410392E+00 
    1.0079558971952329E+00 
    1.0026505242533814E+00 
    1.0026280214677907E+00 
    1.0078884228989691E+00 
    1.0078204645291990E+00 
    1.0026053573765537E+00 
    1.0025825331659262E+00 
    1.0077520256754855E+00 
    1.0076831098006935E+00 
    1.0025595499757711E+00 
    1.0025364088791264E+00 
    1.0076137201855995E+00 
    1.0075438598494326E+00 
    1.0025131108526473E+00 
    1.0024896567328547E+00 
    1.0074735314335803E+00 
    1.0074027370276013E+00 
    1.0024660471498374E+00 
    1.0024422824239834E+00 
    1.0073314779024443E+00 
    1.0072597540899795E+00 
    1.0024183624000114E+00 
    1.0023942861703976E+00 
    1.0071875636994150E+00 
    1.0071149017662628E+00 
    1.0023700515943297E+00 
    1.0023456544169349E+00 
    1.0070417582356437E+00 
    1.0069681142674738E+00 
    1.0023210865521899E+00 
    1.0022963324646221E+00 
    1.0068939351251449E+00 
    1.0068191557559669E+00 
    1.0022713607762892E+00 
    1.0022461024324691E+00 
    1.0067436500367304E+00 
    1.0066671625214549E+00 
    1.0022203861758605E+00 
    1.0021937218586263E+00 
    1.0065891554506017E+00 
    1.0065084882049895E+00 
    1.0021644846949909E+00 
    1.0021265470494687E+00 
    1.0064229500143440E+00 
    1.0063301016498771E+00 
    1.0020543670851669E+00 
    1.0195784355863062E+00 
    1.0273760112665458E+00 
    1.0273699285552649E+00 
    1.0195666592834038E+00 
    1.0195528554178057E+00 
    1.0273601675353539E+00 
    1.0273491937731283E+00 
    1.0195408715462675E+00 
    1.0195305408070510E+00 
    1.0273378021633908E+00 
    1.0273259606960601E+00 
    1.0195209656894395E+00 
    1.0195114232872506E+00 
    1.0273134038976703E+00 
    1.0272998677230738E+00 
    1.0195014504640281E+00 
    1.0194907680096403E+00 
    1.0272851489747745E+00 
    1.0272691044543543E+00 
    1.0194792084312536E+00 
    1.0194666695020911E+00 
    1.0272516363444930E+00 
    1.0272326782641392E+00 
    1.0194530872312852E+00 
    1.0194384204876703E+00 
    1.0272121849617131E+00 
    1.0271901253188691E+00 
    1.0194226421844421E+00 
    1.0194057341190321E+00 
    1.0271664777422336E+00 
    1.0271412271466156E+00 
    1.0193876838735665E+00 
    1.0193684829021301E+00 
    1.0271143629692245E+00 
    1.0270858778477592E+00 
    1.0193481253189816E+00 
    1.0193266071115947E+00 
    1.0270557667280706E+00 
    1.0270240262526966E+00 
    1.0193039256177341E+00 
    1.0192800791705716E+00 
    1.0269906543354661E+00 
    1.0269556498611361E+00 
    1.0192550668531453E+00 
    1.0192288883254370E+00 
    1.0269190124702809E+00 
    1.0268807424031363E+00 
    1.0192015437006006E+00 
    1.0191730334550284E+00 
    1.0268408403847935E+00 
    1.0267993075397666E+00 
    1.0191433583621132E+00 
    1.0191125194428268E+00 
    1.0267561453277048E+00 
    1.0267113554944844E+00 
    1.0190805179284099E+00 
    1.0190473552318953E+00 
    1.0266649400346386E+00 
    1.0266169011622137E+00 
    1.0190130329261449E+00 
    1.0189775527267491E+00 
    1.0265672412879592E+00 
    1.0265159630013194E+00 
    1.0189409164785841E+00 
    1.0189031261451584E+00 
    1.0264630690561012E+00 
    1.0264085623589736E+00 
    1.0188641838000918E+00 
    1.0188240916202527E+00 
    1.0263524459601712E+00 
    1.0262947230459207E+00 
    1.0187828518801836E+00 
    1.0187404669475364E+00 
    1.0262353969322278E+00 
    1.0261744710597429E+00 
    1.0186969392793157E+00 
    1.0186522714187480E+00 
    1.0261119489894843E+00 
    1.0260478343992552E+00 
    1.0186064659926743E+00 
    1.0185595257093418E+00 
    1.0259821310806168E+00 
    1.0259148429363136E+00 
    1.0185114533565351E+00 
    1.0184622517999757E+00 
    1.0258459739780668E+00 
    1.0257755283246672E+00 
    1.0184119239819387E+00 
    1.0183604729200562E+00 
    1.0257035102003178E+00 
    1.0256299239331794E+00 
    1.0183079017062633E+00 
    1.0182542135058748E+00 
    1.0255547739540869E+00 
    1.0254780647953987E+00 
    1.0181994115567541E+00 
    1.0181434991685738E+00 
    1.0253998010899712E+00 
    1.0253199875702230E+00 
    1.0180864797221469E+00 
    1.0180283566688095E+00 
    1.0252386290672844E+00 
    1.0251557305102124E+00 
    1.0179691335298611E+00 
    1.0179088138960397E+00 
    1.0250712969252627E+00 
    1.0249853334352079E+00 
    1.0178474014270338E+00 
    1.0177848998510224E+00 
    1.0248978452586963E+00 
    1.0248088377096432E+00 
    1.0177213129642397E+00 
    1.0176566446305562E+00 
    1.0247183161966489E+00 
    1.0246262862224385E+00 
    1.0175908987810793E+00 
    1.0175240794137657E+00 
    1.0245327533833237E+00 
    1.0244377233686737E+00 
    1.0174561905930446E+00 
    1.0173872364494516E+00 
    1.0243412019604028E+00 
    1.0242431950324646E+00 
    1.0173172211792645E+00 
    1.0172461490441493E+00 
    1.0241437085503557E+00 
    1.0240427485706205E+00 
    1.0171740243708058E+00 
    1.0171008515506179E+00 
    1.0239403212403637E+00 
    1.0238364327967593E+00 
    1.0170266350393027E+00 
    1.0169513793565605E+00 
    1.0237310895665617E+00 
    1.0236242979656183E+00 
    1.0168750890857268E+00 
    1.0167977688734151E+00 
    1.0235160644983732E+00 
    1.0234063957573720E+00 
    1.0167194234291628E+00 
    1.0166400575250700E+00 
    1.0232952984227552E+00 
    1.0231827792617496E+00 
    1.0165596759954316E+00 
    1.0164782837363671E+00 
    1.0230688451281482E+00 
    1.0229535029617847E+00 
    1.0163958857054423E+00 
    1.0163124869212783E+00 
    1.0228367597879895E+00 
    1.0227186227170362E+00 
    1.0162280924631564E+00 
    1.0161427074706053E+00 
    1.0225990989435731E+00 
    1.0224781957460347E+00 
    1.0160563371429818E+00 
    1.0159689867390302E+00 
    1.0223559204860342E+00 
    1.0222322806077333E+00 
    1.0158806615764300E+00 
    1.0157913670313168E+00 
    1.0221072836371796E+00 
    1.0219809371816220E+00 
    1.0157011085377863E+00 
    1.0156098915873653E+00 
    1.0218532489287788E+00 
    1.0217242266460724E+00 
    1.0155177217284568E+00 
    1.0154246045657429E+00 
    1.0215938781798088E+00 
    1.0214622114543015E+00 
    1.0153305457595465E+00 
    1.0152355510251405E+00 
    1.0213292344709239E+00 
    1.0211949553070803E+00 
    1.0151396261319927E+00 
    1.0150427769029418E+00 
    1.0210593821150842E+00 
    1.0209225231209114E+00 
    1.0149450092132830E+00 
    1.0148463289897398E+00 
    1.0207843866228190E+00 
    1.0206449809897902E+00 
    1.0147467422093173E+00 
    1.0146462548979844E+00 
    1.0205043146597710E+00 
    1.0203623961376558E+00 
    1.0145448731291711E+00 
    1.0144426030220133E+00 
    1.0202192339929543E+00 
    1.0200748368570725E+00 
    1.0143394507393027E+00 
    1.0142354224850572E+00 
    1.0199292134201061E+00 
    1.0197823724270276E+00 
    1.0141305245016154E+00 
    1.0140247630661232E+00 
    1.0196343226731011E+00 
    1.0194850729983143E+00 
    1.0139181444862477E+00 
    1.0138106750948912E+00 
    1.0193346322805568E+00 
    1.0191830094271681E+00 
    1.0137023612435982E+00 
    1.0135932092942577E+00 
    1.0190302133643685E+00 
    1.0188762530239022E+00 
    1.0134832256085367E+00 
    1.0133724165342792E+00 
    1.0187211373259870E+00 
    1.0185648751573106E+00 
    1.0132607883877984E+00 
    1.0131483474305389E+00 
    1.0184074753423240E+00 
    1.0182489466053730E+00 
    1.0130350998379447E+00 
    1.0129210516573695E+00 
    1.0180892975201443E+00 
    1.0179285364413464E+00 
    1.0128062087503613E+00 
    1.0126905767123495E+00 
    1.0177666714111959E+00 
    1.0176037100296895E+00 
    1.0125741607590366E+00 
    1.0124569655628943E+00 
    1.0174396592720862E+00 
    1.0172745252283759E+00 
    1.0123389950133759E+00 
    1.0122202518580141E+00 
    1.0171083127257905E+00 
    1.0169410247736304E+00 
    1.0121007371532700E+00 
    1.0119804494041820E+00 
    1.0167726617349908E+00 
    1.0166032200754131E+00 
    1.0118593831822447E+00 
    1.0117375268469457E+00 
    1.0164326904557242E+00 
    1.0162610548220741E+00 
    1.0116148586936389E+00 
    1.0114913402970911E+00 
    1.0160882820276154E+00 
    1.0159143215401492E+00 
    1.0113669048603320E+00 
    1.0112414369762688E+00 
    1.0157390954633609E+00 
    1.0155624920120641E+00 
    1.0111147393784981E+00 
    1.0109864880738069E+00 
    1.0153843730196528E+00 
    1.0152046335350220E+00 
    1.0108562156839298E+00 
    1.0107235251252489E+00 
    1.0150234051090810E+00 
    1.0148415426103936E+00 
    1.0105892617417755E+00 
    1.0351769524893086E+00 
    1.0429783150856831E+00 
    1.0429746094778829E+00 
    1.0351727270744817E+00 
    1.0351647501197947E+00 
    1.0429671591203276E+00 
    1.0429565845719593E+00 
    1.0351542832173499E+00 
    1.0351420526457287E+00 
    1.0429433782850324E+00 
    1.0429278116004794E+00 
    1.0351283071679398E+00 
    1.0351130428542787E+00 
    1.0429099841635110E+00 
    1.0428898983765902E+00 
    1.0350961629020745E+00 
    1.0350775557824716E+00 
    1.0428675140864472E+00 
    1.0428427792825212E+00 
    1.0350571243021662E+00 
    1.0350347921755061E+00 
    1.0428156443107375E+00 
    1.0427860670362004E+00 
    1.0350105022773233E+00 
    1.0349842127457043E+00 
    1.0427540137402647E+00 
    1.0427194583136152E+00 
    1.0349558931958589E+00 
    1.0349255216707425E+00 
    1.0426823809570367E+00 
    1.0426427668966884E+00 
    1.0348930823600213E+00 
    1.0348585639477867E+00 
    1.0426006052879881E+00 
    1.0425558883395196E+00 
    1.0348219584306784E+00 
    1.0347832602744140E+00 
    1.0425086106349368E+00 
    1.0424587686162625E+00 
    1.0347424658097863E+00 
    1.0346995727972783E+00 
    1.0424063601927254E+00 
    1.0423513844449803E+00 
    1.0346545801106048E+00 
    1.0346074875045606E+00 
    1.0422938414009648E+00 
    1.0422337318653412E+00 
    1.0345582954430701E+00 
    1.0345070049706033E+00 
    1.0421710572890095E+00 
    1.0421058196686706E+00 
    1.0344536176150916E+00 
    1.0343981353139495E+00 
    1.0420380214690035E+00 
    1.0419676655619607E+00 
    1.0343405603571905E+00 
    1.0342808953433054E+00 
    1.0418947551790934E+00 
    1.0418192938738493E+00 
    1.0342191431447607E+00 
    1.0341553068807896E+00 
    1.0417412854915573E+00 
    1.0416607341453683E+00 
    1.0340893898957739E+00 
    1.0340213957419366E+00 
    1.0415776441968454E+00 
    1.0414920202401996E+00 
    1.0339513281653836E+00 
    1.0338791910947629E+00 
    1.0414038670894057E+00 
    1.0413131897675976E+00 
    1.0338049886319922E+00 
    1.0337287250446143E+00 
    1.0412199934982911E+00 
    1.0411242836980692E+00 
    1.0336504047594646E+00 
    1.0335700323573731E+00 
    1.0410260659704433E+00 
    1.0409253461006691E+00 
    1.0334876125687165E+00 
    1.0334031502696486E+00 
    1.0408221300513458E+00 
    1.0407164239586382E+00 
    1.0333166504788833E+00 
    1.0332281183549323E+00 
    1.0406082341290299E+00 
    1.0404975670364973E+00 
    1.0331375591937144E+00 
    1.0330449784264708E+00 
    1.0403844293200437E+00 
    1.0402688277815215E+00 
    1.0329503816179306E+00 
    1.0328537744646906E+00 
    1.0401507693836998E+00 
    1.0400302612485368E+00 
    1.0327551627937639E+00 
    1.0326545525612767E+00 
    1.0399073106556167E+00 
    1.0397819250407341E+00 
    1.0325519498512827E+00 
    1.0324473608746834E+00 
    1.0396541119945906E+00 
    1.0395238792615960E+00 
    1.0323407919682264E+00 
    1.0322322495935825E+00 
    1.0393912347387486E+00 
    1.0392561864745891E+00 
    1.0321217403364735E+00 
    1.0320092709058546E+00 
    1.0391187426682094E+00 
    1.0389789116683124E+00 
    1.0318948481331380E+00 
    1.0317784789714479E+00 
    1.0388367019723093E+00 
    1.0386921222254530E+00 
    1.0316601704949029E+00 
    1.0315399298979304E+00 
    1.0385451812199984E+00 
    1.0383958878943835E+00 
    1.0314177644945859E+00 
    1.0312936817178997E+00 
    1.0382442513324308E+00 
    1.0380902807625572E+00 
    1.0311676891192267E+00 
    1.0310397943676102E+00 
    1.0379339855570031E+00 
    1.0377753752310588E+00 
    1.0309100052491502E+00 
    1.0307783296663746E+00 
    1.0376144594423036E+00 
    1.0374512479898415E+00 
    1.0306447756376134E+00 
    1.0305093512963714E+00 
    1.0372857508135391E+00 
    1.0371179779932616E+00 
    1.0303720648907011E+00 
    1.0302329247825683E+00 
    1.0369479397481010E+00 
    1.0367756464356048E+00 
    1.0300919394472192E+00 
    1.0299491174725295E+00 
    1.0366011085509879E+00 
    1.0364243367263386E+00 
    1.0298044675583553E+00 
    1.0296579985158667E+00 
    1.0362453417298130E+00 
    1.0360641344648129E+00 
    1.0295097192668738E+00 
    1.0293596388431347E+00 
    1.0358807259691467E+00 
    1.0356951274141721E+00 
    1.0292077663856471E+00 
    1.0290541111439229E+00 
    1.0355073501039149E+00 
    1.0353174054741627E+00 
    1.0288986824752375E+00 
    1.0287414898438583E+00 
    1.0351253050915288E+00 
    1.0349310606524833E+00 
    1.0285825428202404E+00 
    1.0284218510801879E+00 
    1.0347346839823439E+00 
    1.0345361870342271E+00 
    1.0282594244039840E+00 
    1.0280952726754664E+00 
    1.0343355818879401E+00 
    1.0341328807488208E+00 
    1.0279294058810609E+00 
    1.0277618341087462E+00 
    1.0339280959465043E+00 
    1.0337212399336118E+00 
    1.0275925675469546E+00 
    1.0274216164833840E+00 
    1.0335123252843432E+00 
    1.0333013646929590E+00 
    1.0272489913037146E+00 
    1.0270747024902118E+00 
    1.0330883709721310E+00 
    1.0328733570511350E+00 
    1.0268987606201796E+00 
    1.0267211763642570E+00 
    1.0326563359738585E+00 
    1.0324373208965811E+00 
    1.0265419604845059E+00 
    1.0263611238322532E+00 
    1.0322163250854857E+00 
    1.0319933619138422E+00 
    1.0261786773456396E+00 
    1.0259946320467923E+00 
    1.0317684448587854E+00 
    1.0315415874976057E+00 
    1.0258089990385537E+00 
    1.0256217895006414E+00 
    1.0313128035034331E+00 
    1.0310821066401712E+00 
    1.0254330146851134E+00 
    1.0252426859109502E+00 
    1.0308495107564974E+00 
    1.0306150297786920E+00 