# vtk DataFile Version 2.0
Pressure Field Data 
ASCII 
DATASET UNSTRUCTURED_GRID 

POINTS 242 float 

    0.0000000000000000E+00     0.0000000000000000E+00     0.0000000000000000E+00 
    1.0000000000000000E+00     0.0000000000000000E+00     0.0000000000000000E+00 
    0.0000000000000000E+00     3.7500000000000000E-01     0.0000000000000000E+00 
    1.0000000000000000E+00     5.7499999999999996E-01     0.0000000000000000E+00 
    0.0000000000000000E+00     4.2499999999999999E-01     0.0000000000000000E+00 
    1.0000000000000000E+00     6.2500000000000000E-01     0.0000000000000000E+00 
    0.0000000000000000E+00     1.0000000000000000E+00     0.0000000000000000E+00 
    1.0000000000000000E+00     1.0000000000000000E+00     0.0000000000000000E+00 
    1.0000000000000001E-01     0.0000000000000000E+00     0.0000000000000000E+00 
    2.0000000000000001E-01     0.0000000000000000E+00     0.0000000000000000E+00 
    2.9999999999999999E-01     0.0000000000000000E+00     0.0000000000000000E+00 
    4.0000000000000002E-01     0.0000000000000000E+00     0.0000000000000000E+00 
    5.0000000000000000E-01     0.0000000000000000E+00     0.0000000000000000E+00 
    5.9999999999999998E-01     0.0000000000000000E+00     0.0000000000000000E+00 
    6.9999999999999996E-01     0.0000000000000000E+00     0.0000000000000000E+00 
    8.0000000000000004E-01     0.0000000000000000E+00     0.0000000000000000E+00 
    9.0000000000000002E-01     0.0000000000000000E+00     0.0000000000000000E+00 
    1.0000000000000000E+00     5.7500000000000002E-02     0.0000000000000000E+00 
    1.0000000000000000E+00     1.1500000000000000E-01     0.0000000000000000E+00 
    1.0000000000000000E+00     1.7249999999999999E-01     0.0000000000000000E+00 
    1.0000000000000000E+00     2.3000000000000001E-01     0.0000000000000000E+00 
    1.0000000000000000E+00     2.8749999999999998E-01     0.0000000000000000E+00 
    1.0000000000000000E+00     3.4499999999999997E-01     0.0000000000000000E+00 
    1.0000000000000000E+00     4.0250000000000002E-01     0.0000000000000000E+00 
    1.0000000000000000E+00     4.6000000000000002E-01     0.0000000000000000E+00 
    1.0000000000000000E+00     5.1749999999999996E-01     0.0000000000000000E+00 
    9.0000000000000002E-01     5.5500000000000005E-01     0.0000000000000000E+00 
    8.0000000000000004E-01     5.3500000000000003E-01     0.0000000000000000E+00 
    6.9999999999999996E-01     5.1500000000000001E-01     0.0000000000000000E+00 
    5.9999999999999998E-01     4.9500000000000000E-01     0.0000000000000000E+00 
    5.0000000000000000E-01     4.7499999999999998E-01     0.0000000000000000E+00 
    4.0000000000000002E-01     4.5500000000000002E-01     0.0000000000000000E+00 
    2.9999999999999999E-01     4.3500000000000000E-01     0.0000000000000000E+00 
    2.0000000000000001E-01     4.1499999999999998E-01     0.0000000000000000E+00 
    1.0000000000000001E-01     3.9500000000000002E-01     0.0000000000000000E+00 
    0.0000000000000000E+00     3.3750000000000002E-01     0.0000000000000000E+00 
    0.0000000000000000E+00     2.9999999999999999E-01     0.0000000000000000E+00 
    0.0000000000000000E+00     2.6250000000000001E-01     0.0000000000000000E+00 
    0.0000000000000000E+00     2.2500000000000001E-01     0.0000000000000000E+00 
    0.0000000000000000E+00     1.8750000000000000E-01     0.0000000000000000E+00 
    0.0000000000000000E+00     1.4999999999999999E-01     0.0000000000000000E+00 
    0.0000000000000000E+00     1.1250000000000000E-01     0.0000000000000000E+00 
    0.0000000000000000E+00     7.4999999999999997E-02     0.0000000000000000E+00 
    0.0000000000000000E+00     3.7499999999999999E-02     0.0000000000000000E+00 
    9.0000000000000002E-01     6.0499999999999998E-01     0.0000000000000000E+00 
    8.0000000000000004E-01     5.8499999999999996E-01     0.0000000000000000E+00 
    6.9999999999999996E-01     5.6499999999999995E-01     0.0000000000000000E+00 
    5.9999999999999998E-01     5.4500000000000004E-01     0.0000000000000000E+00 
    5.0000000000000000E-01     5.2500000000000002E-01     0.0000000000000000E+00 
    4.0000000000000002E-01     5.0500000000000000E-01     0.0000000000000000E+00 
    2.9999999999999999E-01     4.8499999999999999E-01     0.0000000000000000E+00 
    2.0000000000000001E-01     4.6500000000000002E-01     0.0000000000000000E+00 
    1.0000000000000001E-01     4.4500000000000001E-01     0.0000000000000000E+00 
    1.0000000000000000E+00     6.6249999999999998E-01     0.0000000000000000E+00 
    1.0000000000000000E+00     6.9999999999999996E-01     0.0000000000000000E+00 
    1.0000000000000000E+00     7.3750000000000004E-01     0.0000000000000000E+00 
    1.0000000000000000E+00     7.7500000000000002E-01     0.0000000000000000E+00 
    1.0000000000000000E+00     8.1250000000000000E-01     0.0000000000000000E+00 
    1.0000000000000000E+00     8.4999999999999998E-01     0.0000000000000000E+00 
    1.0000000000000000E+00     8.8749999999999996E-01     0.0000000000000000E+00 
    1.0000000000000000E+00     9.2500000000000004E-01     0.0000000000000000E+00 
    1.0000000000000000E+00     9.6250000000000002E-01     0.0000000000000000E+00 
    9.0000000000000002E-01     1.0000000000000000E+00     0.0000000000000000E+00 
    8.0000000000000004E-01     1.0000000000000000E+00     0.0000000000000000E+00 
    6.9999999999999996E-01     1.0000000000000000E+00     0.0000000000000000E+00 
    5.9999999999999998E-01     1.0000000000000000E+00     0.0000000000000000E+00 
    5.0000000000000000E-01     1.0000000000000000E+00     0.0000000000000000E+00 
    4.0000000000000002E-01     1.0000000000000000E+00     0.0000000000000000E+00 
    2.9999999999999999E-01     1.0000000000000000E+00     0.0000000000000000E+00 
    2.0000000000000001E-01     1.0000000000000000E+00     0.0000000000000000E+00 
    1.0000000000000001E-01     1.0000000000000000E+00     0.0000000000000000E+00 
    0.0000000000000000E+00     9.4250000000000000E-01     0.0000000000000000E+00 
    0.0000000000000000E+00     8.8500000000000001E-01     0.0000000000000000E+00 
    0.0000000000000000E+00     8.2750000000000001E-01     0.0000000000000000E+00 
    0.0000000000000000E+00     7.7000000000000002E-01     0.0000000000000000E+00 
    0.0000000000000000E+00     7.1250000000000002E-01     0.0000000000000000E+00 
    0.0000000000000000E+00     6.5500000000000003E-01     0.0000000000000000E+00 
    0.0000000000000000E+00     5.9750000000000003E-01     0.0000000000000000E+00 
    0.0000000000000000E+00     5.4000000000000004E-01     0.0000000000000000E+00 
    0.0000000000000000E+00     4.8249999999999998E-01     0.0000000000000000E+00 
    9.0000000000000002E-01     4.9950000000000000E-01     0.0000000000000000E+00 
    9.0000000000000002E-01     4.4400000000000001E-01     0.0000000000000000E+00 
    9.0000000000000002E-01     3.8850000000000001E-01     0.0000000000000000E+00 
    9.0000000000000002E-01     3.3300000000000002E-01     0.0000000000000000E+00 
    9.0000000000000002E-01     2.7750000000000002E-01     0.0000000000000000E+00 
    9.0000000000000002E-01     2.2200000000000000E-01     0.0000000000000000E+00 
    9.0000000000000002E-01     1.6650000000000001E-01     0.0000000000000000E+00 
    9.0000000000000002E-01     1.1100000000000000E-01     0.0000000000000000E+00 
    9.0000000000000002E-01     5.5500000000000001E-02     0.0000000000000000E+00 
    8.0000000000000004E-01     4.8149999999999998E-01     0.0000000000000000E+00 
    8.0000000000000004E-01     4.2799999999999999E-01     0.0000000000000000E+00 
    8.0000000000000004E-01     3.7450000000000000E-01     0.0000000000000000E+00 
    8.0000000000000004E-01     3.2100000000000001E-01     0.0000000000000000E+00 
    8.0000000000000004E-01     2.6750000000000002E-01     0.0000000000000000E+00 
    8.0000000000000004E-01     2.1400000000000000E-01     0.0000000000000000E+00 
    8.0000000000000004E-01     1.6050000000000000E-01     0.0000000000000000E+00 
    8.0000000000000004E-01     1.0700000000000000E-01     0.0000000000000000E+00 
    8.0000000000000004E-01     5.3499999999999999E-02     0.0000000000000000E+00 
    6.9999999999999996E-01     4.6350000000000002E-01     0.0000000000000000E+00 
    6.9999999999999996E-01     4.1199999999999998E-01     0.0000000000000000E+00 
    6.9999999999999996E-01     3.6049999999999999E-01     0.0000000000000000E+00 
    6.9999999999999996E-01     3.0900000000000000E-01     0.0000000000000000E+00 
    6.9999999999999996E-01     2.5750000000000001E-01     0.0000000000000000E+00 
    6.9999999999999996E-01     2.0599999999999999E-01     0.0000000000000000E+00 
    6.9999999999999996E-01     1.5450000000000000E-01     0.0000000000000000E+00 
    6.9999999999999996E-01     1.0299999999999999E-01     0.0000000000000000E+00 
    6.9999999999999996E-01     5.1499999999999997E-02     0.0000000000000000E+00 
    5.9999999999999998E-01     4.4550000000000001E-01     0.0000000000000000E+00 
    5.9999999999999998E-01     3.9600000000000002E-01     0.0000000000000000E+00 
    5.9999999999999998E-01     3.4649999999999997E-01     0.0000000000000000E+00 
    5.9999999999999998E-01     2.9699999999999999E-01     0.0000000000000000E+00 
    5.9999999999999998E-01     2.4750000000000000E-01     0.0000000000000000E+00 
    5.9999999999999998E-01     1.9800000000000001E-01     0.0000000000000000E+00 
    5.9999999999999998E-01     1.4849999999999999E-01     0.0000000000000000E+00 
    5.9999999999999998E-01     9.9000000000000005E-02     0.0000000000000000E+00 
    5.9999999999999998E-01     4.9500000000000002E-02     0.0000000000000000E+00 
    5.0000000000000000E-01     4.2749999999999999E-01     0.0000000000000000E+00 
    5.0000000000000000E-01     3.8000000000000000E-01     0.0000000000000000E+00 
    5.0000000000000000E-01     3.3250000000000002E-01     0.0000000000000000E+00 
    5.0000000000000000E-01     2.8499999999999998E-01     0.0000000000000000E+00 
[...]
CELL_DATA 210 
SCALARS Pressure float 1 
LOOKUP_TABLE default 

    6.3173905490792137E+00 
    5.7025132573293131E+00 
    5.0821238587952742E+00 
    4.4576016354679027E+00 
    3.8300944226741471E+00 
    3.2005824754926753E+00 
    2.5699272479624504E+00 
    1.9389092069239684E+00 
    1.3082577552720167E+00 
    6.7867557773822540E-01 
    6.1630127411407596E+00 
    5.5772344543037278E+00 
    4.9911749453133325E+00 
    4.4047691435219818E+00 
    3.8180578170986195E+00 
    3.2311585737020607E+00 
    2.6442455701024237E+00 
    2.0575355054693194E+00 
    1.4712781606422496E+00 
    8.8575023786280660E-01 
    6.0106273591626636E+00 
    5.4599456863870088E+00 
    4.9090475400648828E+00 
    4.3579083829925089E+00 
    3.8065194688982302E+00 
    3.2548869222197592E+00 
    2.7030295547178209E+00 
    2.1509759608774210E+00 
    1.5987612858272744E+00 
    1.0464240063877615E+00 
    5.8641105559144169E+00 
    5.3488540724963975E+00 
    4.8329432766372022E+00 
    4.3163603149282714E+00 
    3.7990968019905029E+00 
    3.2811496380194498E+00 
    2.7625163090440878E+00 
    2.2431889641184259E+00 
    1.7231463164818823E+00 
    1.2023419737073020E+00 
    5.7413165619343758E+00 
    5.2615693850077836E+00 
    4.7803020215075431E+00 
    4.2976510398724450E+00 
    3.8137560316775119E+00 
    3.3287721693210681E+00 
    2.8428869653011422E+00 
    2.3563436298085954E+00 
    1.8694753817079892E+00 
    1.3827591844366545E+00 
    1.9830679215388951E+00 
    1.9485753303822975E+00 
    1.9097235705114421E+00 
    1.8655000281680643E+00 
    1.8143782724554836E+00 
    1.7541387968849502E+00 
    1.6815653634791765E+00 
    1.5918728462323823E+00 
    1.4775678729162962E+00 
    1.3261671680472329E+00 
    2.4642006591188048E+00 
    2.4422636329683627E+00 
    2.4139640531664517E+00 
    2.3776870711645293E+00 
    2.3309694653291313E+00 
    2.2703901130721400E+00 
    2.1915464355572531E+00 
    2.0892012538513187E+00 
    1.9576564745803022E+00 
    1.7912245844952501E+00 
    2.7698073613812095E+00 
    2.7648355044777029E+00 
    2.7549377330029756E+00 
    2.7391060042045714E+00 
    2.7152391053691289E+00 
    2.6797679572142785E+00 
    2.6272033068585907E+00 
    2.5498124434328915E+00 
    2.4379819228968156E+00 
    2.2825938830893575E+00 
    2.8969699676516720E+00 
    2.9061119081936075E+00 
    2.9140413746202567E+00 
    2.9214597804317535E+00 
    2.9285587158978199E+00 
    2.9346050366265333E+00 
    2.9368284934146311E+00 
    2.9279619627948348E+00 
    2.8911028240275298E+00 
    2.7892693456620616E+00 
    2.8536216890118187E+00 
    2.8604036635186381E+00 
    2.8719516309717212E+00 
    2.8883534821818042E+00 
    2.9115377365372055E+00 
    2.9460785582666729E+00 
    3.0011213786625550E+00 
    3.0943193330178111E+00 
    3.2595837852850673E+00 
    3.5621695676368130E+00 
    6.8901060284997495E+00 
    6.7245411545885432E+00 
    6.5480244960356409E+00 
    6.3761966022484398E+00 
    6.2267923697361169E+00 
    2.0143196490034079E+00 
    2.4805458540701899E+00 
    2.7679337568566105E+00 
    2.8772402927760226E+00 
    2.8115538949081715E+00 
    1.1408049205897854E+01 
    1.0914542531754662E+01 
    1.0436555301072662E+01 
    9.9715972355159916E+00 
    9.5176436010231900E+00 
    9.0730478871195892E+00 
    8.6364732502974793E+00 
    8.2068391462781172E+00 
    7.7832804004061078E+00 
    7.3651166396100862E+00 
    1.1140793870228133E+01 
    1.0706704183552285E+01 
    1.0270512377267783E+01 
    9.8331859660571865E+00 
    9.3954144850618277E+00 
    8.9576700850766535E+00 
    8.5202538575929712E+00 
    8.0833307572493815E+00 
    7.6469553006580071E+00 
    7.2110896603117354E+00 
    1.1041850618582627E+01 
    1.0596427554973967E+01 
    1.0151009996141021E+01 
    9.7055838504143868E+00 
    9.2601496219259385E+00 
    8.8147120497853599E+00 
    8.3692736523483120E+00 
    7.9238311159398016E+00 
    7.4783737874138208E+00 
    7.0328837808076408E+00 
    1.0931584139630566E+01 
    1.0476599365792294E+01 
    1.0022954147016122E+01 
    9.5701941035529909E+00 
    9.1179658637206735E+00 
    8.6659961113179946E+00 
    8.2140746438842420E+00 
    7.7620407907950391E+00 
    7.3097726228337709E+00 
    6.8571784607649935E+00 
    1.0696898258100367E+01 
    1.0266946490783663E+01 
    9.8323866485159304E+00 
    9.3938062486184641E+00 
    8.9516960892022830E+00 
    8.5064675666441705E+00 
    8.0584668531934636E+00 
    7.6079864755072197E+00 
    7.1552747634560170E+00 
    6.7005436163827898E+00 
    2.0167904142457580E+00 
    2.0690095448083525E+00 
    2.0981597821617832E+00 
    2.1123232757714376E+00 
    2.1160850550445556E+00 
    2.1120905228261151E+00 
    2.1019206730972666E+00 
    2.0865729472646368E+00 
    2.0667109321797188E+00 
    2.0427706236788534E+00 
    2.3579372453381211E+00 
    2.3601360489587844E+00 
    2.3848607801154103E+00 
    2.4159585366941894E+00 
    2.4453820157778701E+00 
    2.4693202500762368E+00 
    2.4861623630766800E+00 
    2.4954460232469069E+00 
    2.4973134404156996E+00 
    2.4921863984509081E+00 
    2.1699183188058644E+00 
    2.2852307355482324E+00 
    2.3864172107787152E+00 
    2.4760300125346877E+00 
    2.5539979284319685E+00 
    2.6197222439828849E+00 
    2.6728077339197460E+00 
    2.7132846504633470E+00 
    2.7417102753881775E+00 
    2.7592791060963338E+00 
    1.6382643967711967E+00 
    1.8935685665619726E+00 
    2.1073868260003383E+00 
    2.2871384897743967E+00 
    2.4380143377831196E+00 
    2.5634778636048638E+00 
    2.6657949963749363E+00 
    2.7464688679644329E+00 
    2.8067289089336676E+00 
    2.8485696962374343E+00 
    7.9010540348336633E-01 
    1.2224232491744953E+00 
    1.5779553927664605E+00 
    1.8713809617216324E+00 
    2.1140858969918712E+00 
    2.3145371349090045E+00 
    2.4786491020805173E+00 
    2.6099281171005675E+00 
    2.7090164002463926E+00 
    2.7717424200996525E+00 

