# vtk DataFile Version 2.0
Pressure Field Data 
ASCII 
DATASET UNSTRUCTURED_GRID 

POINTS 1089 float 

    0.0000000000000000E+00     0.0000000000000000E+00     0.0000000000000000E+00 
    1.0000000000000000E+00     0.0000000000000000E+00     0.0000000000000000E+00 
    1.0000000000000000E+00     1.0000000000000000E+00     0.0000000000000000E+00 
    0.0000000000000000E+00     1.0000000000000000E+00     0.0000000000000000E+00 
    3.1249999999941821E-02     0.0000000000000000E+00     0.0000000000000000E+00 
    6.2499999999872928E-02     0.0000000000000000E+00     0.0000000000000000E+00 
    9.3749999999823030E-02     0.0000000000000000E+00     0.0000000000000000E+00 
    1.2499999999977310E-01     0.0000000000000000E+00     0.0000000000000000E+00 
    1.5624999999968331E-01     0.0000000000000000E+00     0.0000000000000000E+00 
    1.8749999999959341E-01     0.0000000000000000E+00     0.0000000000000000E+00 
    2.1874999999950220E-01     0.0000000000000000E+00     0.0000000000000000E+00 
    2.4999999999941089E-01     0.0000000000000000E+00     0.0000000000000000E+00 
    2.8124999999931971E-01     0.0000000000000000E+00     0.0000000000000000E+00 
    3.1249999999922851E-01     0.0000000000000000E+00     0.0000000000000000E+00 
    3.4374999999913730E-01     0.0000000000000000E+00     0.0000000000000000E+00 
    3.7499999999904610E-01     0.0000000000000000E+00     0.0000000000000000E+00 
    4.0624999999895478E-01     0.0000000000000000E+00     0.0000000000000000E+00 
    4.3749999999886358E-01     0.0000000000000000E+00     0.0000000000000000E+00 
    4.6874999999877792E-01     0.0000000000000000E+00     0.0000000000000000E+00 
    4.9999999999869210E-01     0.0000000000000000E+00     0.0000000000000000E+00 
    5.3124999999876910E-01     0.0000000000000000E+00     0.0000000000000000E+00 
    5.6249999999884603E-01     0.0000000000000000E+00     0.0000000000000000E+00 
    5.9374999999892841E-01     0.0000000000000000E+00     0.0000000000000000E+00 
    6.2499999999901090E-01     0.0000000000000000E+00     0.0000000000000000E+00 
    6.5624999999909328E-01     0.0000000000000000E+00     0.0000000000000000E+00 
    6.8749999999917577E-01     0.0000000000000000E+00     0.0000000000000000E+00 
    7.1874999999925815E-01     0.0000000000000000E+00     0.0000000000000000E+00 
    7.4999999999934064E-01     0.0000000000000000E+00     0.0000000000000000E+00 
    7.8124999999942302E-01     0.0000000000000000E+00     0.0000000000000000E+00 
    8.1249999999950551E-01     0.0000000000000000E+00     0.0000000000000000E+00 
    8.4374999999958789E-01     0.0000000000000000E+00     0.0000000000000000E+00 
    8.7499999999967026E-01     0.0000000000000000E+00     0.0000000000000000E+00 
    9.0624999999975264E-01     0.0000000000000000E+00     0.0000000000000000E+00 
    9.3749999999983513E-01     0.0000000000000000E+00     0.0000000000000000E+00 
    9.6874999999991751E-01     0.0000000000000000E+00     0.0000000000000000E+00 
    1.0000000000000000E+00     3.1249999999941821E-02     0.0000000000000000E+00 
    1.0000000000000000E+00     6.2499999999872928E-02     0.0000000000000000E+00 
    1.0000000000000000E+00     9.3749999999823030E-02     0.0000000000000000E+00 
    1.0000000000000000E+00     1.2499999999977310E-01     0.0000000000000000E+00 
    1.0000000000000000E+00     1.5624999999968331E-01     0.0000000000000000E+00 
    1.0000000000000000E+00     1.8749999999959341E-01     0.0000000000000000E+00 
    1.0000000000000000E+00     2.1874999999950220E-01     0.0000000000000000E+00 
    1.0000000000000000E+00     2.4999999999941089E-01     0.0000000000000000E+00 
    1.0000000000000000E+00     2.8124999999931971E-01     0.0000000000000000E+00 
    1.0000000000000000E+00     3.1249999999922851E-01     0.0000000000000000E+00 
    1.0000000000000000E+00     3.4374999999913730E-01     0.0000000000000000E+00 
    1.0000000000000000E+00     3.7499999999904610E-01     0.0000000000000000E+00 
    1.0000000000000000E+00     4.0624999999895478E-01     0.0000000000000000E+00 
    1.0000000000000000E+00     4.3749999999886358E-01     0.0000000000000000E+00 
    1.0000000000000000E+00     4.6874999999877792E-01     0.0000000000000000E+00 
    1.0000000000000000E+00     4.9999999999869210E-01     0.0000000000000000E+00 
    1.0000000000000000E+00     5.3124999999876910E-01     0.0000000000000000E+00 
    1.0000000000000000E+00     5.6249999999884603E-01     0.0000000000000000E+00 
    1.0000000000000000E+00     5.9374999999892841E-01     0.0000000000000000E+00 
    1.0000000000000000E+00     6.2499999999901090E-01     0.0000000000000000E+00 
    1.0000000000000000E+00     6.5624999999909328E-01     0.0000000000000000E+00 
    1.0000000000000000E+00     6.8749999999917577E-01     0.0000000000000000E+00 
    1.0000000000000000E+00     7.1874999999925815E-01     0.0000000000000000E+00 
    1.0000000000000000E+00     7.4999999999934064E-01     0.0000000000000000E+00 
    1.0000000000000000E+00     7.8124999999942302E-01     0.0000000000000000E+00 
    1.0000000000000000E+00     8.1249999999950551E-01     0.0000000000000000E+00 
    1.0000000000000000E+00     8.4374999999958789E-01     0.0000000000000000E+00 
    1.0000000000000000E+00     8.7499999999967026E-01     0.0000000000000000E+00 
    1.0000000000000000E+00     9.0624999999975264E-01     0.0000000000000000E+00 
    1.0000000000000000E+00     9.3749999999983513E-01     0.0000000000000000E+00 
    1.0000000000000000E+00     9.6874999999991751E-01     0.0000000000000000E+00 
    9.6874999999986700E-01     1.0000000000000000E+00     0.0000000000000000E+00 
    9.3749999999973976E-01     1.0000000000000000E+00     0.0000000000000000E+00 
    9.0624999999967670E-01     1.0000000000000000E+00     0.0000000000000000E+00 
    8.7499999999950118E-01     1.0000000000000000E+00     0.0000000000000000E+00 
    8.4374999999971556E-01     1.0000000000000000E+00     0.0000000000000000E+00 
    8.1249999999991318E-01     1.0000000000000000E+00     0.0000000000000000E+00 
    7.8125000000010270E-01     1.0000000000000000E+00     0.0000000000000000E+00 
    7.5000000000034706E-01     1.0000000000000000E+00     0.0000000000000000E+00 
    7.1875000000056688E-01     1.0000000000000000E+00     0.0000000000000000E+00 
    6.8750000000078049E-01     1.0000000000000000E+00     0.0000000000000000E+00 
    6.5625000000097422E-01     1.0000000000000000E+00     0.0000000000000000E+00 
    6.2500000000121403E-01     1.0000000000000000E+00     0.0000000000000000E+00 
    5.9375000000151579E-01     1.0000000000000000E+00     0.0000000000000000E+00 
    5.6250000000164757E-01     1.0000000000000000E+00     0.0000000000000000E+00 
    5.3125000000182365E-01     1.0000000000000000E+00     0.0000000000000000E+00 
    5.0000000000205946E-01     1.0000000000000000E+00     0.0000000000000000E+00 
    4.6875000000194023E-01     1.0000000000000000E+00     0.0000000000000000E+00 
    4.3750000000182099E-01     1.0000000000000000E+00     0.0000000000000000E+00 
    4.0625000000169093E-01     1.0000000000000000E+00     0.0000000000000000E+00 
    3.7500000000156092E-01     1.0000000000000000E+00     0.0000000000000000E+00 
    3.4375000000143069E-01     1.0000000000000000E+00     0.0000000000000000E+00 
    3.1250000000130068E-01     1.0000000000000000E+00     0.0000000000000000E+00 
    2.8125000000117062E-01     1.0000000000000000E+00     0.0000000000000000E+00 
    2.5000000000104050E-01     1.0000000000000000E+00     0.0000000000000000E+00 
    2.1875000000091041E-01     1.0000000000000000E+00     0.0000000000000000E+00 
    1.8750000000078040E-01     1.0000000000000000E+00     0.0000000000000000E+00 
    1.5625000000065031E-01     1.0000000000000000E+00     0.0000000000000000E+00 
    1.2500000000052031E-01     1.0000000000000000E+00     0.0000000000000000E+00 
    9.3750000000390132E-02     1.0000000000000000E+00     0.0000000000000000E+00 
    6.2500000000260125E-02     1.0000000000000000E+00     0.0000000000000000E+00 
    3.1250000000130007E-02     1.0000000000000000E+00     0.0000000000000000E+00 
    0.0000000000000000E+00     9.6874999999986700E-01     0.0000000000000000E+00 
    0.0000000000000000E+00     9.3749999999973976E-01     0.0000000000000000E+00 
    0.0000000000000000E+00     9.0624999999967670E-01     0.0000000000000000E+00 
    0.0000000000000000E+00     8.7499999999950118E-01     0.0000000000000000E+00 
    0.0000000000000000E+00     8.4374999999971556E-01     0.0000000000000000E+00 
    0.0000000000000000E+00     8.1249999999991318E-01     0.0000000000000000E+00 
    0.0000000000000000E+00     7.8125000000010270E-01     0.0000000000000000E+00 
    0.0000000000000000E+00     7.5000000000034706E-01     0.0000000000000000E+00 
    0.0000000000000000E+00     7.1875000000056688E-01     0.0000000000000000E+00 
    0.0000000000000000E+00     6.8750000000078049E-01     0.0000000000000000E+00 
    0.0000000000000000E+00     6.5625000000097422E-01     0.0000000000000000E+00 
    0.0000000000000000E+00     6.2500000000121403E-01     0.0000000000000000E+00 
    0.0000000000000000E+00     5.9375000000151579E-01     0.0000000000000000E+00 
    0.0000000000000000E+00     5.6250000000164757E-01     0.0000000000000000E+00 
    0.0000000000000000E+00     5.3125000000182365E-01     0.0000000000000000E+00 
    0.0000000000000000E+00     5.0000000000205946E-01     0.0000000000000000E+00 
    0.0000000000000000E+00     4.6875000000194023E-01     0.0000000000000000E+00 
    0.0000000000000000E+00     4.3750000000182099E-01     0.0000000000000000E+00 
    0.0000000000000000E+00     4.0625000000169093E-01     0.0000000000000000E+00 
    0.0000000000000000E+00     3.7500000000156092E-01     0.0000000000000000E+00 
    0.0000000000000000E+00     3.4375000000143069E-01     0.0000000000000000E+00 
    0.0000000000000000E+00     3.1250000000130068E-01     0.0000000000000000E+00 
    0.0000000000000000E+00     2.8125000000117062E-01     0.0000000000000000E+00 
[...]
CELL_DATA 1024 
SCALARS Pressure float 1 
LOOKUP_TABLE default 

   -2.6981605406848885E-01 
   -2.6706675276306097E-01 
   -2.6123300355266960E-01 
   -2.5957591089081977E-01 
   -2.5223194605950144E-01 
   -2.5554170810509058E-01 
   -2.5061680188565949E-01 
   -2.4663782023182618E-01 
   -2.4224826406330743E-01 
   -2.4650963216353286E-01 
   -2.4315012127212463E-01 
   -2.3877316209993293E-01 
   -2.3604199538141438E-01 
   -2.4045684896662595E-01 
   -2.3835992909284648E-01 
   -2.3394531320047815E-01 
   -2.3240707154127163E-01 
   -2.3680252679077876E-01 
   -2.3573802967909271E-01 
   -2.3137047886343140E-01 
   -2.3079025552642213E-01 
   -2.3512704661180217E-01 
   -2.3493505927441424E-01 
   -2.3062817226788446E-01 
   -2.3085037785148813E-01 
   -2.3513072992279890E-01 
   -2.3568470607200898E-01 
   -2.3142574833011453E-01 
   -2.3232481700560179E-01 
   -2.3656875790336918E-01 
   -2.3775510897444502E-01 
   -2.3351899848905966E-01 
   -2.3497991261062937E-01 
   -2.3921585336535600E-01 
   -2.4092239173679736E-01 
   -2.3667869742972988E-01 
   -2.3858529047494931E-01 
   -2.4284486480694942E-01 
   -2.4495160408950112E-01 
   -2.4066773528284180E-01 
   -2.4289160430663317E-01 
   -2.4720864052148644E-01 
   -2.4957930182402618E-01 
   -2.4521960174346538E-01 
   -2.4761133949073602E-01 
   -2.5202389515289814E-01 
   -2.5449943371261724E-01 
   -2.5002321725605159E-01 
   -2.5240833838195348E-01 
   -2.5695934736247594E-01 
   -2.5935312171447183E-01 
   -2.5471648628420929E-01 
   -2.5689438453557212E-01 
   -2.6162580768683152E-01 
   -2.6371723588630147E-01 
   -2.5888682360930487E-01 
   -2.6064001727200553E-01 
   -2.6556026840866065E-01 
   -2.6707553117609989E-01 
   -2.6211061885957054E-01 
   -2.6329043757121851E-01 
   -2.6815314555753550E-01 
   -2.6858838783985761E-01 
   -2.6430728269204373E-01 
   -2.6680472624862905E-01 
   -2.6766392731363436E-01 
   -2.6398101487184289E-01 
   -2.6251038527298765E-01 
   -2.5799553255878171E-01 
   -2.6016390588105026E-01 
   -2.5650962658302850E-01 
   -2.5378413810213279E-01 
   -2.5008526452362539E-01 
   -2.5320396336026924E-01 
   -2.5033893655160461E-01 
   -2.4695572271958777E-01 
   -2.4439078148143625E-01 
   -2.4794942158148486E-01 
   -2.4603987749434691E-01 
   -2.4236421046017245E-01 
   -2.4084412588769089E-01 
   -2.4459978620061670E-01 
   -2.4361166581528829E-01 
   -2.3979862030201710E-01 
   -2.3919735747060289E-01 
   -2.4305494783956583E-01 
   -2.4290772156094262E-01 
   -2.3901167955620406E-01 
   -2.3921423185838259E-01 
   -2.4314742557576305E-01 
   -2.4375103413883059E-01 
   -2.3977848003300703E-01 
   -2.4067823925740978E-01 
   -2.4469500306509726E-01 
   -2.4595509683501549E-01 
   -2.4188723447796615E-01 
   -2.4337867598586746E-01 
   -2.4750614871067186E-01 
   -2.4932177637877093E-01 
   -2.4512483176805577E-01 
   -2.4709659087186242E-01 
   -2.5137406630700060E-01 
   -2.5363324032822648E-01 
   -2.4926302827230640E-01 
   -2.5159099059213252E-01 
   -2.5606731730200777E-01 
   -2.5864177687058160E-01 
   -2.5404471610607932E-01 
   -2.5658548253438829E-01 
   -2.6131921799516677E-01 
   -2.6405898480721601E-01 
   -2.5917124812428477E-01 
   -2.6175622436040435E-01 
   -2.6681670658695411E-01 
   -2.6954366344830405E-01 
   -2.6429028273175248E-01 
   -2.6671802386315191E-01 
   -2.7218582734172447E-01 
   -2.7468230968180651E-01 
   -2.6897713717368110E-01 
   -2.7099516438101534E-01 
   -2.7696273360407575E-01 
   -2.7894275731629908E-01 
   -2.7268253747872023E-01 
   -2.7391703839959802E-01 
   -2.8051693545574169E-01 
   -2.8154998076529875E-01 
   -2.7451035746669494E-01 
   -2.6910903261868890E-01 
   -2.7091824913209073E-01 
   -2.6766099518777570E-01 
   -2.6570543390895268E-01 
   -2.6229586577131947E-01 
   -2.6449852652972211E-01 
   -2.6151442022549948E-01 
   -2.5903690018928949E-01 
   -2.5605846869408355E-01 
   -2.5879306591565365E-01 
   -2.5640081167704354E-01 
   -2.5344552328051639E-01 
   -2.5124472539679832E-01 
   -2.5438206486717774E-01 
   -2.5276230200362249E-01 
   -2.4947631410148335E-01 
   -2.4814399790742492E-01 
   -2.5155282504674459E-01 
   -2.5075502992123527E-01 
   -2.4724162574764585E-01 
   -2.4675724799243434E-01 
   -2.5036358131242548E-01 
   -2.5036855558450316E-01 
   -2.4667543557015889E-01 
   -2.4697853366886111E-01 
   -2.5075679794749067E-01 
   -2.5151273516764278E-01 
   -2.4764729132503438E-01 
   -2.4866113073254034E-01 
   -2.5261882760461540E-01 
   -2.5405578586347405E-01 
   -2.4999820636717596E-01 
   -2.5163533625058609E-01 
   -2.5580263316029905E-01 
   -2.5783666466011346E-01 
   -2.5354785161286703E-01 
   -2.5570939209435373E-01 
   -2.6013333741623851E-01 
   -2.6266611300581105E-01 
   -2.5809166563835678E-01 
   -2.6066418632380300E-01 
   -2.6540626872440937E-01 
   -2.6832268566577167E-01 
   -2.6339399666590907E-01 
   -2.6624537055945091E-01 
   -2.7138161540677808E-01 
   -2.7454641835357846E-01 
   -2.6917947909369944E-01 
   -2.7215398434653953E-01 
   -2.7777725843222534E-01 
   -2.8103073203165552E-01 
   -2.7512250544101485E-01 
   -2.7803387419052566E-01 
   -2.8425940854278742E-01 
   -2.8741127643375003E-01 
   -2.8083106720540713E-01 
   -2.8344969256538899E-01 
   -2.9042915371252559E-01 
   -2.9325030682656583E-01 
   -2.8581602783333127E-01 
   -2.8784517483513533E-01 
   -2.9580696860967864E-01 
   -2.9802934689768640E-01 
   -2.8944173396236250E-01 
   -2.7300153279067818E-01 
   -2.7533014965925495E-01 
   -2.7221562420680517E-01 
   -2.6983077151293550E-01 
   -2.6682669826869415E-01 
   -2.6931913174796035E-01 
   -2.6666904038717676E-01 
   -2.6403626368271832E-01 
   -2.6151366673457588E-01 
   -2.6430090824103653E-01 
   -2.6224973001453011E-01 
   -2.5930751024118259E-01 
   -2.5745501955968331E-01 
   -2.6054507011482197E-01 
   -2.5920904150198976E-01 
   -2.5598118151356403E-01 
   -2.5490025003540001E-01 
   -2.5825617359416908E-01 
   -2.5769421977311752E-01 
   -2.5421793605640797E-01 
   -2.5393345896328134E-01 
   -2.5752526302590933E-01 
   -2.5774677777642330E-01 
   -2.5404117333473153E-01 
   -2.5453174425727487E-01 
   -2.5835250696573525E-01 
   -2.5933312305539530E-01 
   -2.5539294185796702E-01 
   -2.5661014537563537E-01 
   -2.6067669245058150E-01 
   -2.6236897719386626E-01 
   -2.5816663616170682E-01 
   -2.6004374052590212E-01 
   -2.6439361161567720E-01 
   -2.6673218390959147E-01 
   -2.6222086678511136E-01 
   -2.6467546821425386E-01 
   -2.6936424889133742E-01 
   -2.7226729194601806E-01 
   -2.6738295472725293E-01 
   -2.7031656970083456E-01 
   -2.7541666025573330E-01 
   -2.7878547405384013E-01 
   -2.7344724331761999E-01 
   -2.7674342885323189E-01 
   -2.8234452808049687E-01 
   -2.8606219218186030E-01 
   -2.8017092452080461E-01 
   -2.8369268092061917E-01 
   -2.8990432100989749E-01 
   -2.9383418839169523E-01 
   -2.8726859638165825E-01 
   -2.9085531367927697E-01 
   -2.9781247547684353E-01 
   -3.0179736894381537E-01 
   -2.9440606201580466E-01 
   -2.9787065613065800E-01 
   -3.0574487384831034E-01 
   -3.0960952104119022E-01 
   -3.0119590021011033E-01 
   -3.0432687955631821E-01 
   -3.1334574511845931E-01 
   -3.1691026768350528E-01 
   -3.0720993602552266E-01 
   -2.7790656759073973E-01 
   -2.8075035686745298E-01 
   -2.7770330997979642E-01 
   -2.7483116825291015E-01 
   -2.7201158710175438E-01 
   -2.7494095390468437E-01 
   -2.7247674429019558E-01 
   -2.6946649590285343E-01 
   -2.6722020431248361E-01 
   -2.7032822780417853E-01 
   -2.6851443837666206E-01 
   -2.6529816016294205E-01 
   -2.6372345507670142E-01 
   -2.6705353924241421E-01 
   -2.6596115736827236E-01 
   -2.6251479773066938E-01 
   -2.6168573609849605E-01 
   -2.6524946495759788E-01 
   -2.6492685179362457E-01 
   -2.6124469274140405E-01 
   -2.6119541503259414E-01 
   -2.6499798003082620E-01 
   -2.6546403638940652E-01 
   -2.6153756592127020E-01 
   -2.6226729852572211E-01 
   -2.6632305521417160E-01 
   -2.6757023339717634E-01 
   -2.6337774188301888E-01 
   -2.6485937540672450E-01 
   -2.6919819907729015E-01 
   -2.7119721942125430E-01 
   -2.6670029545977053E-01 
   -2.6888638869761344E-01 
   -2.7355534736687848E-01 
   -2.7625851448424682E-01 
   -2.7140143010426193E-01 
   -2.7422712341800504E-01 
   -2.7929058043452804E-01 
   -2.8263335072934043E-01 
   -2.7734310008237828E-01 
   -2.8072689109423776E-01 
   -2.8626657479195211E-01 
   -2.9016793639552158E-01 
   -2.8435388464936401E-01 
   -2.8819728163627972E-01 
   -2.9431304889370719E-01 
   -2.9867546876839990E-01 
   -2.9222806137191915E-01 
   -2.9641497230058306E-01 
   -3.0322674349463213E-01 
   -3.0793651437041980E-01 
   -3.0072456830582955E-01 
   -3.0512132238599543E-01 
   -3.1277270248458933E-01 
   -3.1770181685271365E-01 
   -3.0956786832234118E-01 
   -3.1402544875003341E-01 
   -3.2268943679542972E-01 
   -3.2770093129843536E-01 
   -3.1845468178370617E-01 
   -3.2281678397781211E-01 
   -3.3270247507970563E-01 
   -3.3766238282896327E-01 
   -3.2707536450491859E-01 
   -2.8389104145142730E-01 
   -2.8736423257609567E-01 
   -2.8435310020334786E-01 
   -2.8086483229650899E-01 
   -2.7814617724296742E-01 
   -2.8166816157404567E-01 
   -2.7931841936975166E-01 
   -2.7574566243343518E-01 
   -2.7367676414454495E-01 
   -2.7731491330030034E-01 
   -2.7566978991646451E-01 
   -2.7195431630317657E-01 
   -2.7059295147275053E-01 
   -2.7439526992875940E-01 
   -2.7350272102226808E-01 
   -2.6960583774846153E-01 
   -2.6900383246215315E-01 
   -2.7300195080629946E-01 
   -2.7290074450652135E-01 
   -2.6879502812457440E-01 
   -2.6898459669717883E-01 
   -2.7320461636887133E-01 
   -2.7391671917980809E-01 
   -2.6957482514456976E-01 
   -2.7056525170961787E-01 
   -2.7503785458293473E-01 
   -2.7656653649206525E-01 
   -2.7195283810303983E-01 
   -2.7373213725958673E-01 
   -2.7849907320354916E-01 
   -2.8082964642998798E-01 
   -2.7589543523750532E-01 
   -2.7843285890071034E-01 
   -2.8355037568493180E-01 
   -2.8665136399067798E-01 
   -2.8133244932408608E-01 
   -2.8458020584676169E-01 
   -2.9012072617671331E-01 
   -2.9394460468221389E-01 
   -2.8816010859965008E-01 
   -2.9205412906185724E-01 
   -2.9810718032358829E-01 
   -3.0259068736949696E-01 
   -2.9624223938485389E-01 
   -3.0070243231793781E-01 
   -3.0737544379932497E-01 
   -3.1243990904021224E-01 
   -3.0541076495763470E-01 
   -3.1034144159014776E-01 
   -3.1776078294590321E-01 
   -3.2331316136740029E-01 
   -3.1546695393821822E-01 
   -3.2075830128677874E-01 
   -3.2907076523793555E-01 
   -3.3500626113547755E-01 
   -3.2618531792533545E-01 
   -3.3171713942181985E-01 
   -3.4109169052117128E-01 
   -3.4729902000614410E-01 
   -3.3732283892644682E-01 
   -3.4297225297850897E-01 
   -3.5360081256028619E-01 
   -3.5997099578801284E-01 
   -3.4863698341242183E-01 
   -2.9120942955923190E-01 
   -2.9546872304083865E-01 
   -2.9247387360478816E-01 
   -2.8820857656004728E-01 
   -2.8554942590505805E-01 
   -2.8983376563586732E-01 
   -2.8755616790226912E-01 
   -2.8324013796554937E-01 
   -2.8129032965203499E-01 
   -2.8564992365806474E-01 
   -2.8412455997374370E-01 
   -2.7971048672039395E-01 
   -2.7851126755043787E-01 
   -2.8298980526132672E-01 
   -2.8225509435969015E-01 
   -2.7770282834706134E-01 
   -2.7729425719239187E-01 
   -2.8192912300290424E-01 
   -2.8201948663616033E-01 
   -2.7729315447721253E-01 
   -2.7770535798049939E-01 
   -2.8253241337684143E-01 
   -2.8347258306207085E-01 
   -2.7853478794404968E-01 
   -2.7978337895611394E-01 
   -2.8484301479032026E-01 
   -2.8664500257315739E-01 
   -2.8145106645775569E-01 
   -2.8353580156300556E-01 
   -2.8887808029955109E-01 
   -2.9154000106512618E-01 
   -2.8603357533344836E-01 
   -2.8893844081177800E-01 
   -2.9462672055508654E-01 
   -2.9813237874418319E-01 
   -2.9224252720592370E-01 
   -2.9593604547085156E-01 
   -3.0204927830598371E-01 
   -3.0636786169809771E-01 
   -3.0000728830414836E-01 
   -3.0444263048838294E-01 
   -3.1107669192343257E-01 
   -3.1616244449198794E-01 
   -3.0922653779225695E-01 
   -3.1434159443368292E-01 
   -3.2160992011311595E-01 
   -3.2740208905318607E-01 
   -3.1976856048547120E-01 
   -3.2548647156499144E-01 
   -3.3352017874003753E-01 
   -3.3994381585888717E-01 
   -3.3147279360001702E-01 
   -3.3770364518018514E-01 
   -3.4665123259442815E-01 
   -3.5361954354218350E-01 
   -3.4415409855903267E-01 
   -3.5079856701721485E-01 
   -3.6082509485954273E-01 
   -3.6824388023758176E-01 
   -3.5761127991940628E-01 
   -3.6456683603299495E-01 
   -3.7585200921642786E-01 
   -3.8362620269451003E-01 
   -3.7164080958929274E-01 
   -3.0018601634383868E-01 
   -3.0540655631605751E-01 
   -3.0241175871428239E-01 
   -2.9719315393320944E-01 
   -2.9456599134784639E-01 
   -2.9979175060270319E-01 
   -2.9755430094755236E-01 
   -2.9231219686106147E-01 
   -2.9044027138342488E-01 
   -2.9570786801142462E-01 
   -2.9426139093566062E-01 
   -2.8895927276875766E-01 
   -2.8787846894772973E-01 
   -2.9322402903569528E-01 
   -2.9260487876676505E-01 
   -2.8720696836277820E-01 
   -2.8695336963454549E-01 
   -2.9241269613717635E-01 
   -2.9265564495540053E-01 
   -2.8712545831881053E-01 
   -2.8772996317324379E-01 
   -2.9334108198441350E-01 
   -2.9447538149865821E-01 
   -2.8877237166990027E-01 
   -2.9025679624715189E-01 
   -2.9606379537859617E-01 
   -2.9811034114674867E-01 
   -2.9218587889370229E-01 
   -2.9456072111236103E-01 
   -3.0061770897392937E-01 
   -3.0358717909953459E-01 
   -2.9738082794330967E-01 
   -3.0064405754024554E-01 
   -3.0701854273184492E-01 
   -3.1091002185926175E-01 
   -3.0434657110091845E-01 
   -3.0848278135335100E-01 
   -3.1525818619869006E-01 
   -3.2005786854144613E-01 
   -3.1304530108594342E-01 
   -3.1802489627872504E-01 
   -3.2530208289740553E-01 
   -3.3098195293895988E-01 
   -3.2341045115338352E-01 
   -3.2918895477081334E-01 
   -3.3708666108031454E-01 
   -3.4360343073178662E-01 
   -3.3534552043766874E-01 
   -3.4186344981371491E-01 
   -3.5051755532603590E-01 
   -3.5781248699380253E-01 
   -3.4872435285295367E-01 
   -3.5590833219378371E-01 
   -3.6546999465929669E-01 
   -3.7347039547190675E-01 
   -3.6339423610843730E-01 
   -3.7115997769096531E-01 
   -3.8179285509708760E-01 
   -3.9041574250600852E-01 
   -3.7918291008775362E-01 
   -3.8744023921216364E-01 
   -3.9931701549379545E-01 
   -4.0847460674159197E-01 
   -3.9590944791384747E-01 
   -3.1117665900882685E-01 
   -3.1754356256121974E-01 
   -3.1453298293483561E-01 
   -3.0817598775067584E-01 
   -3.0555742154700050E-01 
   -3.1191006380497610E-01 
   -3.0968319992335286E-01 
   -3.0332898052430229E-01 
   -3.0149930001135167E-01 
   -3.0786137579771611E-01 
   -3.0645401455942983E-01 
   -3.0007746037587857E-01 
   -2.9907278076352967E-01 
   -3.0547080511483166E-01 
   -3.0492152008357298E-01 
   -2.9849459572275389E-01 
   -2.9835203273267674E-01 
   -3.0481583569164389E-01 
   -3.0516316193028920E-01 
   -2.9865380448380491E-01 
   -2.9940802407805495E-01 
   -3.0597248767743934E-01 
   -3.0725224184047167E-01 
   -3.0062204566212031E-01 
   -3.0230232841958599E-01 
   -3.0901016847121043E-01 
   -3.1125321153950081E-01 
   -3.0445431878429896E-01 
   -3.0708234422766700E-01 
   -3.1398740373308048E-01 
   -3.1721775324691714E-01 
   -3.1018951180383381E-01 
   -3.1377760552524336E-01 
   -3.2094812295143094E-01 
   -3.2518109751627594E-01 
   -3.1784697833634568E-01 
   -3.2239643677989460E-01 
   -3.2991783599245073E-01 
   -3.3515791004717971E-01 
   -3.2742311930174200E-01 
   -3.3292237243451150E-01 
   -3.4089913154508272E-01 
   -3.4713737746222073E-01 
   -3.3888763271340044E-01 
   -3.4531032585735288E-01 
   -3.5386642502899907E-01 
   -3.6107781504036451E-01 
   -3.5217979803244792E-01 
   -3.5948329616712349E-01 
   -3.6876076551305104E-01 
   -3.7690215984348457E-01 
   -3.6720601432102584E-01 
   -3.7533121993226914E-01 
   -3.8548663143310158E-01 
   -3.9449675853376454E-01 
   -3.8384046655383330E-01 
   -3.9271388843590588E-01 
   -4.0391336791143556E-01 
   -4.1371592517882200E-01 
   -4.0193055846396319E-01 
   -4.1146887774227686E-01 
   -4.2388296805123932E-01 
   -4.3439252430032693E-01 
   -4.2130695700579179E-01 
   -3.2455536766209542E-01 
   -3.3226104265117823E-01 
   -3.2921784388582931E-01 
   -3.2153068485726299E-01 
   -3.1889741406262040E-01 
   -3.2656791660979417E-01 
   -3.2432074711803444E-01 
   -3.1666443754083401E-01 
   -3.1484123548460879E-01 
   -3.2248644939466820E-01 
   -3.2107560842224897E-01 
   -3.1343773912964146E-01 
   -3.1246417650834024E-01 
   -3.2009913317402333E-01 
   -3.1956812471054213E-01 
   -3.1193091936958750E-01 
   -3.1184833711579679E-01 
   -3.1949376000833002E-01 
   -3.1988718947951239E-01 
   -3.1222666104259972E-01 
   -3.1307585978604885E-01 
   -3.2075944479938223E-01 
   -3.2212135290156430E-01 
   -3.1440552473095634E-01 
   -3.1622476228664725E-01 
   -3.2398345138940565E-01 
   -3.2635589998500841E-01 
   -3.1854208847891602E-01 
   -3.2136532030904874E-01 
   -3.2924838200240614E-01 
   -3.3266998928406671E-01 
   -3.2470145784221749E-01 
   -3.2855655105735720E-01 
   -3.3662908372484956E-01 
   -3.4113312862105766E-01 
   -3.3293554619633292E-01 
   -3.3784210782294349E-01 
   -3.4618848389626239E-01 
   -3.5180016114488377E-01 
   -3.4327841523566388E-01 
   -3.4924493550667818E-01 
   -3.5797153788452879E-01 
   -3.6470403597320794E-01 
   -3.5574018045184735E-01 
   -3.6276046131889544E-01 
   -3.7199677731545017E-01 
   -3.7984624088598795E-01 
   -3.7029966258316749E-01 
   -3.7834906396031059E-01 
   -3.8824595803353923E-01 
   -3.9718629576495534E-01 
   -3.8689724561350236E-01 
   -3.9593011248872950E-01 
   -4.0665438583153246E-01 
   -4.1663425416979100E-01 
   -4.0543106598371598E-01 
   -4.1538133156358115E-01 
   -4.2710718276787224E-01 
   -4.3805228939339302E-01 
   -4.2576041934256531E-01 
   -4.3654665701892381E-01 
   -4.4944724458471974E-01 
   -4.6126898127910604E-01 
   -4.4771770453387877E-01 
   -3.4071048186633396E-01 
   -3.4995461560634711E-01 
   -3.4685995506004413E-01 
   -3.3764407532951513E-01 
   -3.3497078185974344E-01 
   -3.4415606813219035E-01 
   -3.4185410160530866E-01 
   -3.3270082818177305E-01 
   -3.3084510828672420E-01 
   -3.3996590333108773E-01 
   -3.3850379160880473E-01 
   -3.2941500055650064E-01 
   -3.2842221862684434E-01 
   -3.3748039675011310E-01 
   -3.3690856645628020E-01 
   -3.2787869708738787E-01 
   -3.2779650560443313E-01 
   -3.3680131669122548E-01 
   -3.3717180939374625E-01 
   -3.2818778264073833E-01 
   -3.2906468020212792E-01 
   -3.3803334192595752E-01 
   -3.3939933712194276E-01 
   -3.3043931210462074E-01 
   -3.3232369911984661E-01 
   -3.4128332565486325E-01 
   -3.4369891382087908E-01 
   -3.3472970465647955E-01 
   -3.3766895437085259E-01 
   -3.4665972990865546E-01 
   -3.5017934141062729E-01 
   -3.4115273243514993E-01 
   -3.4519184635994232E-01 
   -3.5427113377824110E-01 
   -3.5894813957398591E-01 
   -3.4979645155736605E-01 
   -3.5497582662161892E-01 
   -3.6422280514775984E-01 
   -3.7010668097854177E-01 
   -3.6073809112996952E-01 
   -3.6708986038697800E-01 
   -3.7661002254018883E-01 
   -3.8374129245459493E-01 
   -3.7403583695546005E-01 
   -3.8157834822796477E-01 
   -3.9150656389168736E-01 
   -3.9990884228229340E-01 
   -3.8971685377293019E-01 
   -3.9844746605328124E-01 
   -4.0894734993038190E-01 
   -4.1861685681425848E-01 
   -4.0776255171821318E-01 
   -4.1765050271064713E-01 
   -4.2890718666200772E-01 
   -4.3980306668203017E-01 
   -4.2809577629506995E-01 
   -4.3907928485521075E-01 
   -4.5128449463220716E-01 
   -4.6332772826837249E-01 
   -4.5057915334923820E-01 
   -4.6257175006790874E-01 
   -4.7590682503142895E-01 
   -4.8899538911994694E-01 
   -4.7503276204101996E-01 
   -3.6004558108910217E-01 
   -3.7103698009969210E-01 
   -3.6786865600489277E-01 
   -3.5691715873164392E-01 
   -3.5417478348901549E-01 
   -3.6507900435419816E-01 
   -3.6268194623593186E-01 