# vtk DataFile Version 2.0
Pressure Field Data 
ASCII 
DATASET UNSTRUCTURED_GRID 

POINTS 1089 float 

    0.0000000000000000E+00     0.0000000000000000E+00     0.0000000000000000E+00 
    1.0000000000000000E+00     0.0000000000000000E+00     0.0000000000000000E+00 
    1.0000000000000000E+00     1.0000000000000000E+00     0.0000000000000000E+00 
    0.0000000000000000E+00     1.0000000000000000E+00     0.0000000000000000E+00 
    3.1249999999941821E-02     0.0000000000000000E+00     0.0000000000000000E+00 
    6.2499999999872928E-02     0.0000000000000000E+00     0.0000000000000000E+00 
    9.3749999999823030E-02     0.0000000000000000E+00     0.0000000000000000E+00 
    1.2499999999977310E-01     0.0000000000000000E+00     0.0000000000000000E+00 
    1.5624999999968331E-01     0.0000000000000000E+00     0.0000000000000000E+00 
    1.8749999999959341E-01     0.0000000000000000E+00     0.0000000000000000E+00 
    2.1874999999950220E-01     0.0000000000000000E+00     0.0000000000000000E+00 
    2.4999999999941089E-01     0.0000000000000000E+00     0.0000000000000000E+00 
    2.8124999999931971E-01     0.0000000000000000E+00     0.0000000000000000E+00 
    3.1249999999922851E-01     0.0000000000000000E+00     0.0000000000000000E+00 
    3.4374999999913730E-01     0.0000000000000000E+00     0.0000000000000000E+00 
    3.7499999999904610E-01     0.0000000000000000E+00     0.0000000000000000E+00 
    4.0624999999895478E-01     0.0000000000000000E+00     0.0000000000000000E+00 
    4.3749999999886358E-01     0.0000000000000000E+00     0.0000000000000000E+00 
    4.6874999999877792E-01     0.0000000000000000E+00     0.0000000000000000E+00 
    4.9999999999869210E-01     0.0000000000000000E+00     0.0000000000000000E+00 
    5.3124999999876910E-01     0.0000000000000000E+00     0.0000000000000000E+00 
    5.6249999999884603E-01     0.0000000000000000E+00     0.0000000000000000E+00 
    5.9374999999892841E-01     0.0000000000000000E+00     0.0000000000000000E+00 
    6.2499999999901090E-01     0.0000000000000000E+00     0.0000000000000000E+00 
    6.5624999999909328E-01     0.0000000000000000E+00     0.0000000000000000E+00 
    6.8749999999917577E-01     0.0000000000000000E+00     0.0000000000000000E+00 
    7.1874999999925815E-01     0.0000000000000000E+00     0.0000000000000000E+00 
    7.4999999999934064E-01     0.0000000000000000E+00     0.0000000000000000E+00 
    7.8124999999942302E-01     0.0000000000000000E+00     0.0000000000000000E+00 
    8.1249999999950551E-01     0.0000000000000000E+00     0.0000000000000000E+00 
    8.4374999999958789E-01     0.0000000000000000E+00     0.0000000000000000E+00 
    8.7499999999967026E-01     0.0000000000000000E+00     0.0000000000000000E+00 
    9.0624999999975264E-01     0.0000000000000000E+00     0.0000000000000000E+00 
    9.3749999999983513E-01     0.0000000000000000E+00     0.0000000000000000E+00 
    9.6874999999991751E-01     0.0000000000000000E+00     0.0000000000000000E+00 
    1.0000000000000000E+00     3.1249999999941821E-02     0.0000000000000000E+00 
    1.0000000000000000E+00     6.2499999999872928E-02     0.0000000000000000E+00 
    1.0000000000000000E+00     9.3749999999823030E-02     0.0000000000000000E+00 
    1.0000000000000000E+00     1.2499999999977310E-01     0.0000000000000000E+00 
    1.0000000000000000E+00     1.5624999999968331E-01     0.0000000000000000E+00 
    1.0000000000000000E+00     1.8749999999959341E-01     0.0000000000000000E+00 
    1.0000000000000000E+00     2.1874999999950220E-01     0.0000000000000000E+00 
    1.0000000000000000E+00     2.4999999999941089E-01     0.0000000000000000E+00 
    1.0000000000000000E+00     2.8124999999931971E-01     0.0000000000000000E+00 
    1.0000000000000000E+00     3.1249999999922851E-01     0.0000000000000000E+00 
    1.0000000000000000E+00     3.4374999999913730E-01     0.0000000000000000E+00 
    1.0000000000000000E+00     3.7499999999904610E-01     0.0000000000000000E+00 
    1.0000000000000000E+00     4.0624999999895478E-01     0.0000000000000000E+00 
    1.0000000000000000E+00     4.3749999999886358E-01     0.0000000000000000E+00 
    1.0000000000000000E+00     4.6874999999877792E-01     0.0000000000000000E+00 
    1.0000000000000000E+00     4.9999999999869210E-01     0.0000000000000000E+00 
    1.0000000000000000E+00     5.3124999999876910E-01     0.0000000000000000E+00 
    1.0000000000000000E+00     5.6249999999884603E-01     0.0000000000000000E+00 
    1.0000000000000000E+00     5.9374999999892841E-01     0.0000000000000000E+00 
    1.0000000000000000E+00     6.2499999999901090E-01     0.0000000000000000E+00 
    1.0000000000000000E+00     6.5624999999909328E-01     0.0000000000000000E+00 
    1.0000000000000000E+00     6.8749999999917577E-01     0.0000000000000000E+00 
    1.0000000000000000E+00     7.1874999999925815E-01     0.0000000000000000E+00 
    1.0000000000000000E+00     7.4999999999934064E-01     0.0000000000000000E+00 
    1.0000000000000000E+00     7.8124999999942302E-01     0.0000000000000000E+00 
    1.0000000000000000E+00     8.1249999999950551E-01     0.0000000000000000E+00 
    1.0000000000000000E+00     8.4374999999958789E-01     0.0000000000000000E+00 
    1.0000000000000000E+00     8.7499999999967026E-01     0.0000000000000000E+00 
    1.0000000000000000E+00     9.0624999999975264E-01     0.0000000000000000E+00 
    1.0000000000000000E+00     9.3749999999983513E-01     0.0000000000000000E+00 
    1.0000000000000000E+00     9.6874999999991751E-01     0.0000000000000000E+00 
    9.6874999999986700E-01     1.0000000000000000E+00     0.0000000000000000E+00 
    9.3749999999973976E-01     1.0000000000000000E+00     0.0000000000000000E+00 
    9.0624999999967670E-01     1.0000000000000000E+00     0.0000000000000000E+00 
    8.7499999999950118E-01     1.0000000000000000E+00     0.0000000000000000E+00 
    8.4374999999971556E-01     1.0000000000000000E+00     0.0000000000000000E+00 
    8.1249999999991318E-01     1.0000000000000000E+00     0.0000000000000000E+00 
    7.8125000000010270E-01     1.0000000000000000E+00     0.0000000000000000E+00 
    7.5000000000034706E-01     1.0000000000000000E+00     0.0000000000000000E+00 
    7.1875000000056688E-01     1.0000000000000000E+00     0.0000000000000000E+00 
    6.8750000000078049E-01     1.0000000000000000E+00     0.0000000000000000E+00 
    6.5625000000097422E-01     1.0000000000000000E+00     0.0000000000000000E+00 
    6.2500000000121403E-01     1.0000000000000000E+00     0.0000000000000000E+00 
    5.9375000000151579E-01     1.0000000000000000E+00     0.0000000000000000E+00 
    5.6250000000164757E-01     1.0000000000000000E+00     0.0000000000000000E+00 
    5.3125000000182365E-01     1.0000000000000000E+00     0.0000000000000000E+00 
    5.0000000000205946E-01     1.0000000000000000E+00     0.0000000000000000E+00 
    4.6875000000194023E-01     1.0000000000000000E+00     0.0000000000000000E+00 
    4.3750000000182099E-01     1.0000000000000000E+00     0.0000000000000000E+00 
    4.0625000000169093E-01     1.0000000000000000E+00     0.0000000000000000E+00 
    3.7500000000156092E-01     1.0000000000000000E+00     0.0000000000000000E+00 
    3.4375000000143069E-01     1.0000000000000000E+00     0.0000000000000000E+00 
    3.1250000000130068E-01     1.0000000000000000E+00     0.0000000000000000E+00 
    2.8125000000117062E-01     1.0000000000000000E+00     0.0000000000000000E+00 
    2.5000000000104050E-01     1.0000000000000000E+00     0.0000000000000000E+00 
    2.1875000000091041E-01     1.0000000000000000E+00     0.0000000000000000E+00 
    1.8750000000078040E-01     1.0000000000000000E+00     0.0000000000000000E+00 
    1.5625000000065031E-01     1.0000000000000000E+00     0.0000000000000000E+00 
    1.2500000000052031E-01     1.0000000000000000E+00     0.0000000000000000E+00 
    9.3750000000390132E-02     1.0000000000000000E+00     0.0000000000000000E+00 
    6.2500000000260125E-02     1.0000000000000000E+00     0.0000000000000000E+00 
    3.1250000000130007E-02     1.0000000000000000E+00     0.0000000000000000E+00 
    0.0000000000000000E+00     9.6874999999986700E-01     0.0000000000000000E+00 
    0.0000000000000000E+00     9.3749999999973976E-01     0.0000000000000000E+00 
    0.0000000000000000E+00     9.0624999999967670E-01     0.0000000000000000E+00 
    0.0000000000000000E+00     8.7499999999950118E-01     0.0000000000000000E+00 
    0.0000000000000000E+00     8.4374999999971556E-01     0.0000000000000000E+00 
    0.0000000000000000E+00     8.1249999999991318E-01     0.0000000000000000E+00 
    0.0000000000000000E+00     7.8125000000010270E-01     0.0000000000000000E+00 
    0.0000000000000000E+00     7.5000000000034706E-01     0.0000000000000000E+00 
    0.0000000000000000E+00     7.1875000000056688E-01     0.0000000000000000E+00 
    0.0000000000000000E+00     6.8750000000078049E-01     0.0000000000000000E+00 
    0.0000000000000000E+00     6.5625000000097422E-01     0.0000000000000000E+00 
    0.0000000000000000E+00     6.2500000000121403E-01     0.0000000000000000E+00 
    0.0000000000000000E+00     5.9375000000151579E-01     0.0000000000000000E+00 
    0.0000000000000000E+00     5.6250000000164757E-01     0.0000000000000000E+00 
    0.0000000000000000E+00     5.3125000000182365E-01     0.0000000000000000E+00 
    0.0000000000000000E+00     5.0000000000205946E-01     0.0000000000000000E+00 
    0.0000000000000000E+00     4.6875000000194023E-01     0.0000000000000000E+00 
    0.0000000000000000E+00     4.3750000000182099E-01     0.0000000000000000E+00 
    0.0000000000000000E+00     4.0625000000169093E-01     0.0000000000000000E+00 
    0.0000000000000000E+00     3.7500000000156092E-01     0.0000000000000000E+00 
    0.0000000000000000E+00     3.4375000000143069E-01     0.0000000000000000E+00 
    0.0000000000000000E+00     3.1250000000130068E-01     0.0000000000000000E+00 
    0.0000000000000000E+00     2.8125000000117062E-01     0.0000000000000000E+00 
[...]
CELL_DATA 1024 
SCALARS Pressure float 1 
LOOKUP_TABLE default 

   -4.7362157291028950E-01 
   -4.6962143119134458E-01 
   -4.6321360051608290E-01 
   -4.6189771505185878E-01 
   -4.5355880735072096E-01 
   -4.5688326655459099E-01 
   -4.5138580030637715E-01 
   -4.4723558243428485E-01 
   -4.4227739100697133E-01 
   -4.4678697178188648E-01 
   -4.4300570621446278E-01 
   -4.3833844315497744E-01 
   -4.3521609644077774E-01 
   -4.3994683770756343E-01 
   -4.3752899151717611E-01 
   -4.3278118899125012E-01 
   -4.3094513319177252E-01 
   -4.3568667321521010E-01 
   -4.3436701043400683E-01 
   -4.2964303318178815E-01 
   -4.2882437630045767E-01 
   -4.3352618592649245E-01 
   -4.3312657830864038E-01 
   -4.2844757082923451E-01 
   -4.2847656089531322E-01 
   -4.3313463610903935E-01 
   -4.3351931808730254E-01 
   -4.2887862214033207E-01 
   -4.2962285729122718E-01 
   -4.3425093595325887E-01 
   -4.3530027416200368E-01 
   -4.3067912004199216E-01 
   -4.3201720792299675E-01 
   -4.3663789880258758E-01 
   -4.3823359425781949E-01 
   -4.3360622687018752E-01 
   -4.3541406671115535E-01 
   -4.4005588544166735E-01 
   -4.4207161618293250E-01 
   -4.3740694890173037E-01 
   -4.3954902213713282E-01 
   -4.4424556292516354E-01 
   -4.4654006865399137E-01 
   -4.4180199195028064E-01 
   -4.4412478054462179E-01 
   -4.4891468594621919E-01 
   -4.5132582038727148E-01 
   -4.4647322722887239E-01 
   -4.4879986580816345E-01 
   -4.5372636611386941E-01 
   -4.5606531733865646E-01 
   -4.5105386982236040E-01 
   -4.5318138034832034E-01 
   -4.5828730403169976E-01 
   -4.6033186038224827E-01 
   -4.5512672903218615E-01 
   -4.5683583154703544E-01 
   -4.6213172095084942E-01 
   -4.6360755758471517E-01 
   -4.5826511807950682E-01 
   -4.5940600364943551E-01 
   -4.6464963413043392E-01 
   -4.6505299808300588E-01 
   -4.6038530257517252E-01 
   -4.6870800740225460E-01 
   -4.6920864192016370E-01 
   -4.6539284527950098E-01 
   -4.6415621328921086E-01 
   -4.5925052493438456E-01 
   -4.6133072678311510E-01 
   -4.5738072135168795E-01 
   -4.5462357120691754E-01 
   -4.5052918697502364E-01 
   -4.5376762147099442E-01 
   -4.5060368108747079E-01 
   -4.4703807514804750E-01 
   -4.4414691618684721E-01 
   -4.4793265483966271E-01 
   -4.4576194519540663E-01 
   -4.4182661522675976E-01 
   -4.4004146554074403E-01 
   -4.4408119130245610E-01 
   -4.4287192913497597E-01 
   -4.3875599699893580E-01 
   -4.3793692642507881E-01 
   -4.4211226393449299E-01 
   -4.4177895835960762E-01 
   -4.3755327409689687E-01 
   -4.3757586518753777E-01 
   -4.4184823696089792E-01 
   -4.4229597382282587E-01 
   -4.3797668282443819E-01 
   -4.3872823760156737E-01 
   -4.4309759400354209E-01 
   -4.4422784982000374E-01 
   -4.3980300175710912E-01 
   -4.4117291195947439E-01 
   -4.4566054734581351E-01 
   -4.4736825727665969E-01 
   -4.4280892997855503E-01 
   -4.4468064701517290E-01 
   -4.4932202277169414E-01 
   -4.5149106711327280E-01 
   -4.4675591757370081E-01 
   -4.4900050972003674E-01 
   -4.5384249747221295E-01 
   -4.5634099684517576E-01 
   -4.5137775842435357E-01 
   -4.5384820696990169E-01 
   -4.5894849010760103E-01 
   -4.6162376086949347E-01 
   -4.5636921402336955E-01 
   -4.5889448999118976E-01 
   -4.6432197757664606E-01 
   -4.6699405285703849E-01 
   -4.6137348708089793E-01 
   -4.6375047959680699E-01 
   -4.6958569211437723E-01 
   -4.7203586183180246E-01 
   -4.6596295413506778E-01 
   -4.6793840694739874E-01 
   -4.7427419112058700E-01 
   -4.7621653564331778E-01 
   -4.6958740800057158E-01 
   -4.7078809313282871E-01 
   -4.7775792061652694E-01 
   -4.7876403488713409E-01 
   -4.7135286880906008E-01 
   -4.7045849161351400E-01 
   -4.7217342285976938E-01 
   -4.6886672518219152E-01 
   -4.6697757353036190E-01 
   -4.6340723061134453E-01 
   -4.6559364168428846E-01 
   -4.6245457278779073E-01 
   -4.5993619675790259E-01 
   -4.5672142881879552E-01 
   -4.5955124216737242E-01 
   -4.5696400109886215E-01 
   -4.5386608843671628E-01 
   -4.5142759536941474E-01 
   -4.5474714086447482E-01 
   -4.5293250880562247E-01 
   -4.4943189381307236E-01 
   -4.4788534329741791E-01 
   -4.5153522035539462E-01 
   -4.5055878338111444E-01 
   -4.4678273869535196E-01 
   -4.4611218886813353E-01 
   -4.4999890609650089E-01 
   -4.4984606223872398E-01 
   -4.4585789400292897E-01 
   -4.4600163501252676E-01 
   -4.5008710977139904E-01 
   -4.5070625539758796E-01 
   -4.4652350959900383E-01 
   -4.4740223904505527E-01 
   -4.5168558987696900E-01 
   -4.5300534948737914E-01 
   -4.4861523470005071E-01 
   -4.5013853054173253E-01 
   -4.5464400564118529E-01 
   -4.5657824659608803E-01 
   -4.5194664193573048E-01 
   -4.5401238159354229E-01 
   -4.5878289145041479E-01 
   -4.6123075890952575E-01 
   -4.5630664913608027E-01 
   -4.5879819984919085E-01 
   -4.6389250478635713E-01 
   -4.6673643241040025E-01 
   -4.6145339137723473E-01 
   -4.6423590014894922E-01 
   -4.6972827558801811E-01 
   -4.7283094725161234E-01 
   -4.6710639085366318E-01 
   -4.7002210946462863E-01 
   -4.7600424109087913E-01 
   -4.7920446776078873E-01 
   -4.7293635092654357E-01 
   -4.7579772354725341E-01 
   -4.8238400650964691E-01 
   -4.8549076816150633E-01 
   -4.7854909874661067E-01 
   -4.8112612519688297E-01 
   -4.8846763060877263E-01 
   -4.9125209483455340E-01 
   -4.8345530991271124E-01 
   -4.8545225161196692E-01 
   -4.9377686006057625E-01 
   -4.9597291704822039E-01 
   -4.8702247331701193E-01 
   -4.7422968761557666E-01 
   -4.7657849763719096E-01 
   -4.7343949539166880E-01 
   -4.7102499663218339E-01 
   -4.6794160842470389E-01 
   -4.7048423845202370E-01 
   -4.6774607599365270E-01 
   -4.6503548958933594E-01 
   -4.6237170650557285E-01 
   -4.6526738422745878E-01 
   -4.6309019250740724E-01 
   -4.6000893030924123E-01 
   -4.5799247349848865E-01 
   -4.6125031274954342E-01 
   -4.5977490298930979E-01 
   -4.5635325047224523E-01 
   -4.5510958251271399E-01 
   -4.5868230465399656E-01 
   -4.5798300889539584E-01 
   -4.5426982368487306E-01 
   -4.5383481873567594E-01 
   -4.5768098023248643E-01 
   -4.5777492708210454E-01 
   -4.5379984965711440E-01 
   -4.5415603964417950E-01 
   -4.5825935075905283E-01 
   -4.5912533635018055E-01 
   -4.5489130087136365E-01 
   -4.5599093726424761E-01 
   -4.6036111127147772E-01 
   -4.6195241292852796E-01 
   -4.5743800061607959E-01 
   -4.5921347575749066E-01 
   -4.6388271367761358E-01 
   -4.6613333879528374E-01 
   -4.6129634960210025E-01 
   -4.6366360192764511E-01 
   -4.6868350948716925E-01 
   -4.7151033341611387E-01 
   -4.6629014323729479E-01 
   -4.6914871607402925E-01 
   -4.7458875990662214E-01 
   -4.7789151261980861E-01 
   -4.7220977003451770E-01 
   -4.7544131580427473E-01 
   -4.8138900967184106E-01 
   -4.8504928033993405E-01 
   -4.7880876100112812E-01 
   -4.8227472911498381E-01 
   -4.8883788905458114E-01 
   -4.9271788346944501E-01 
   -4.8579886602720967E-01 
   -4.8933764971787364E-01 
   -4.9664979699188000E-01 
   -5.0059176313121312E-01 
   -4.9284424886109585E-01 
   -4.9626854366964895E-01 
   -5.0449984694854855E-01 
   -5.0832877339668481E-01 
   -4.9955755841079874E-01 
   -5.0265678944319581E-01 
   -5.1203332700867599E-01 
   -5.1557075071070091E-01 
   -5.0551321999338072E-01 
   -4.7920944878714600E-01 
   -4.8213334599864649E-01 
   -4.7907251334810819E-01 
   -4.7611581815487652E-01 
   -4.7325165744467101E-01 
   -4.7627584499207537E-01 
   -4.7375842891111891E-01 
   -4.7063846522225466E-01 
   -4.6830487384959418E-01 
   -4.7154058851004466E-01 
   -4.6964472470775370E-01 
   -4.6628119879419305E-01 
   -4.6459521807294674E-01 
   -4.6809246603782345E-01 
   -4.6690265984582285E-01 
   -4.6326972853894210E-01 
   -4.6232160770495873E-01 
   -4.6609026651476737E-01 
   -4.6566596487064082E-01 
   -4.6176185405101633E-01 
   -4.6159612572889003E-01 
   -4.6563621860825943E-01 
   -4.6600357908931161E-01 
   -4.6182544806420300E-01 
   -4.6244690212679590E-01 
   -4.6676707477722185E-01 
   -4.6792259155898175E-01 
   -4.6345420809561072E-01 
   -4.6483817768970842E-01 
   -4.6946319992040103E-01 
   -4.7137941186760279E-01 
   -4.6658704094147757E-01 
   -4.6868666594540648E-01 
   -4.7365936814209192E-01 
   -4.7628896459460168E-01 
   -4.7112069359190328E-01 
   -4.7387060834854294E-01 
   -4.7925193007249345E-01 
   -4.8252986907265394E-01 
   -4.7691576349227177E-01 
   -4.8023337641246372E-01 
   -4.8610228222923896E-01 
   -4.8994657735776798E-01 
   -4.8379850742879144E-01 
   -4.8758403440575432E-01 
   -4.9403808385633657E-01 
   -4.9835008428386801E-01 
   -4.9156063583802717E-01 
   -4.9569679757692731E-01 
   -5.0285387940571713E-01 
   -5.0751890765125074E-01 
   -4.9995886453381122E-01 
   -5.0431116972103718E-01 
   -5.1231294733159138E-01 
   -5.1720244057481024E-01 
   -5.0871629169474908E-01 
   -5.1313551879338959E-01 
   -5.2215299053496578E-01 
   -5.2713009338232097E-01 
   -5.1752963139868524E-01 
   -5.2186013763983363E-01 
   -5.3210016253977377E-01 
   -5.3703186290720983E-01 
   -5.2609107208029116E-01 
   -4.8537345967005435E-01 
   -4.8896077144846001E-01 
   -4.8594199522375703E-01 
   -4.8233685514230273E-01 
   -4.7959165725556380E-01 
   -4.8323663991080440E-01 
   -4.8085424522507936E-01 
   -4.7714939753129626E-01 
   -4.7502535654986977E-01 
   -4.7880703220318299E-01 
   -4.7710877827497172E-01 
   -4.7323670607424961E-01 
   -4.7180062522820887E-01 
   -4.7577357227357225E-01 
   -4.7481469856346087E-01 
   -4.7073277807237029E-01 
   -4.7004629589976915E-01 
   -4.7424378874424944E-01 
   -4.7407026880806274E-01 
   -4.6975123280880510E-01 
   -4.6985438061219742E-01 
   -4.7430106405690742E-01 
   -4.7494049453910692E-01 
   -4.7035931399962400E-01 
   -4.7126655732945488E-01 
   -4.7599029220598127E-01 
   -4.7744968278107935E-01 
   -4.7257379562308771E-01 
   -4.7427608190060944E-01 
   -4.7931549144564828E-01 
   -4.8158224659551552E-01 
   -4.7636601570314674E-01 
   -4.7883388318421033E-01 
   -4.8424226806165227E-01 
   -4.8728573501653788E-01 
   -4.8166775883403856E-01 
   -4.8485357449814526E-01 
   -4.9070073483428617E-01 
   -4.9447329817897001E-01 
   -4.8837516438568712E-01 
   -4.9221429638026171E-01 
   -4.9858742825585028E-01 
   -5.0302513401833804E-01 
   -4.9635070096059541E-01 
   -5.0076210996050263E-01 
   -5.0776647856950874E-01 
   -5.1278965529602105E-01 
   -5.0542431866116566E-01 
   -5.1031128665307102E-01 
   -5.1807110558684633E-01 
   -5.2358569337227046E-01 
   -5.1539529582635291E-01 
   -5.2064718781295305E-01 
   -5.2930695301837372E-01 
   -5.3520742781247443E-01 
   -5.2603670787911683E-01 
   -5.3153298592864329E-01 
   -5.4125911511665237E-01 
   -5.4743402902117300E-01 
   -5.3710518443799560E-01 
   -5.4272333081008062E-01 
   -5.5370487856136497E-01 
   -5.6004583564539312E-01 
   -5.4835931816881089E-01 
   -4.9293124974871044E-01 
   -4.9732422517694808E-01 
   -4.9432618882863127E-01 
   -4.8992510763734287E-01 
   -4.8725055422341645E-01 
   -4.9167491914714201E-01 
   -4.8937831800528758E-01 
   -4.8491603795273769E-01 
   -4.8293194993215971E-01 
   -4.8744573251373680E-01 
   -4.8588749131729536E-01 
   -4.8130991825859781E-01 
   -4.8006197195862582E-01 
   -4.8471432951624177E-01 
   -4.8393679858906202E-01 
   -4.7919973188966009E-01 
   -4.7873373383479739E-01 
   -4.8356473605890182E-01 
   -4.8360683697700774E-01 
   -4.7867292854838334E-01 
   -4.7902435631879892E-01 
   -4.8407033894886464E-01 
   -4.8496081103123545E-01 
   -4.7979296625135670E-01 
   -4.8098154045710517E-01 
   -4.8628202549703875E-01 
   -4.8803588822320743E-01 
   -4.8259068471460503E-01 
   -4.8461885432777779E-01 
   -4.9022240542330708E-01 
   -4.9283966906209159E-01 
   -4.8706239284750025E-01 
   -4.8991556982963652E-01 
   -4.9588384877345631E-01 
   -4.9934918343986545E-01 
   -4.9317061092566250E-01 
   -4.9681771917175388E-01 
   -5.0322797032588384E-01 
   -5.0751055367111331E-01 
   -5.0084509055026327E-01 
   -5.0523893004577480E-01 
   -5.1218531796831268E-01 
   -5.1723869383430854E-01 
   -5.0998347678234024E-01 
   -5.1506104860182655E-01 
   -5.2265518642799591E-01 
   -5.2841743770073057E-01 
   -5.2045211771978261E-01 
   -5.2613542987328699E-01 
   -5.3450633421223226E-01 
   -5.4090117157602602E-01 
   -5.3208817955634669E-01 
   -5.3828625329969149E-01 
   -5.4757988454802153E-01 
   -5.5451934808911996E-01 
   -5.4470455108776328E-01 
   -5.5131739221809073E-01 
   -5.6169574921919030E-01 
   -5.6908502204518863E-01 
   -5.5809900516586619E-01 
   -5.6502409006568266E-01 
   -5.7666332911160867E-01 
   -5.8440756178572684E-01 
   -5.7206842644020872E-01 
   -5.0218140083772589E-01 
   -5.0754624055487274E-01 
   -5.0455201358765267E-01 
   -4.9918728771074117E-01 
   -4.9655265239995711E-01 
   -5.0192781537595321E-01 
   -4.9968138935840889E-01 
   -4.9428519889585465E-01 
   -4.9239374988623047E-01 
   -4.9782139182782736E-01 
   -4.9635715435164862E-01 
   -4.9088792519621666E-01 
   -4.8977773295691901E-01 
   -4.9529838117823199E-01 
   -4.9465481816405210E-01 
   -4.8907313257322277E-01 
   -4.8878362038424295E-01 
   -4.9443592708804773E-01 
   -4.9465059027428726E-01 
   -4.8891787177677237E-01 
   -4.8948345486606537E-01 
   -4.9530685921668666E-01 
   -4.9641175058908504E-01 
   -4.9048661562442658E-01 
   -4.9193212449067952E-01 
   -4.9797108539958951E-01 
   -4.9998936258471316E-01 
   -4.9382316986510805E-01 
   -4.9616128326922238E-01 
   -5.0246965668951926E-01 
   -5.0541352975072806E-01 
   -4.9894628289176923E-01 
   -5.0217622554651531E-01 
   -5.0882094937903843E-01 
   -5.1269020775960650E-01 
   -5.0584736090449223E-01 
   -5.0995408575059553E-01 
   -5.1701783947497681E-01 
   -5.2179853946986143E-01 
   -5.1448889970999978E-01 
   -5.1944236727508486E-01 
   -5.2702508596275899E-01 
   -5.3268827649562001E-01 
   -5.2480309394050351E-01 
   -5.3055772666973189E-01 
   -5.3877688833913029E-01 
   -5.4527767672604333E-01 
   -5.3669099051900249E-01 
   -5.4318577367854926E-01 
   -5.5217542528747665E-01 
   -5.5945306191993927E-01 
   -5.5002327204114543E-01 
   -5.5718320129706411E-01 
   -5.6709184945712832E-01 
   -5.7507165361778600E-01 
   -5.6464407929357630E-01 
   -5.7238357415482177E-01 
   -5.8337128107639569E-01 
   -5.9196886946453964E-01 
   -5.8037890509881018E-01 
   -5.8860727420373049E-01 
   -6.0084230099371005E-01 
   -6.0996960510987053E-01 
   -5.9704630016435056E-01 
   -5.1346359641591177E-01 
   -5.1997949190450243E-01 
   -5.1697288226897831E-01 
   -5.1046523117741927E-01 
   -5.0784544759059724E-01 
   -5.1435147217801247E-01 
   -5.1212357022684873E-01 
   -5.0561220231207538E-01 
   -5.0377424427863604E-01 
   -5.1029821708321432E-01 
   -5.0888502260708790E-01 
   -5.0234092593176449E-01 
   -5.0132196839791088E-01 
   -5.0789397345783949E-01 
   -5.0733522625739136E-01 
   -5.0072720370697754E-01 
   -5.0056631615719815E-01 
   -5.0721890021284377E-01 
   -5.0755487991387405E-01 
   -5.0084860001865861E-01 
   -5.0158274397076896E-01 
   -5.0835263477016845E-01 
   -5.0962105718612372E-01 
   -5.0277664588093995E-01 
   -5.0443725601146083E-01 
   -5.1136831779848335E-01 
   -5.1360173333426629E-01 
   -5.0657044304931043E-01 
   -5.0918087551912306E-01 
   -5.1632764101691009E-01 
   -5.1955127291893199E-01 
   -5.1227191090050206E-01 
   -5.1584548577635747E-01 
   -5.2327662412070708E-01 
   -5.2750630988906066E-01 
   -5.1990200227690875E-01 
   -5.2444020873259090E-01 
   -5.3224140929186459E-01 
   -5.3748129572760528E-01 
   -5.2945707566916644E-01 
   -5.3494767196258652E-01 
   -5.4322345880100120E-01 
   -5.4946332678223719E-01 
   -5.4090504996533684E-01 
   -5.4732015242277010E-01 
   -5.5619410432402105E-01 
   -5.6340664560368914E-01 
   -5.5418175748024756E-01 
   -5.6147648019950436E-01 
   -5.7108938752105265E-01 
   -5.7922836933326027E-01 
   -5.6918884863608710E-01 
   -5.7730146846759922E-01 
   -5.8780736199662109E-01 
   -5.9680812043132758E-01 
   -5.8579528152102678E-01 
   -5.9464991042003967E-01 
   -6.0621075398979929E-01 
   -6.1599418629893932E-01 
   -6.0384406573940974E-01 
   -6.1335597732551306E-01 
   -6.2613665099559745E-01 
   -6.3661615399726379E-01 
   -6.2316380303868824E-01 
   -5.2714101169777150E-01 
   -5.3499626907182563E-01 
   -5.3196016979405292E-01 
   -5.2412189681228272E-01 
   -5.2149265658374577E-01 
   -5.2931661611874603E-01 
   -5.2707498916683870E-01 
   -5.1926207443257955E-01 
   -5.1743964795850239E-01 
   -5.2524539449409680E-01 
   -5.2383850163281687E-01 
   -5.1603543495365867E-01 
   -5.1505988585805029E-01 
   -5.2286538825728723E-01 
   -5.2233739543143387E-01 
   -5.1452367279814892E-01 
   -5.1443752289098710E-01 
   -5.2226599580595601E-01 
   -5.2266267392878452E-01 
   -5.1481206080446917E-01 
   -5.1565766282433778E-01 
   -5.2353881628283017E-01 
   -5.2490560760092619E-01 
   -5.1698432205840938E-01 
   -5.1880152209270691E-01 
   -5.2677392906022968E-01 
   -5.2915425301850505E-01 
   -5.2111811456284685E-01 
   -5.2394219482753923E-01 
   -5.3205652806786052E-01 
   -5.3549004746555684E-01 
   -5.2728096929341772E-01 
   -5.3114060799114415E-01 
   -5.3946329361676293E-01 
   -5.4398375144300737E-01 
   -5.3552607681682007E-01 
   -5.4044094556316324E-01 
   -5.4905768446804171E-01 
   -5.5468986969970024E-01 
   -5.4588717067369230E-01 
   -5.5186485580637612E-01 
   -5.6088329141347371E-01 
   -5.6763880035294534E-01 
   -5.5837199900197299E-01 
   -5.6540424253765309E-01 
   -5.7495475416767505E-01 
   -5.8282666720498455E-01 
   -5.7295464999080625E-01 
   -5.8101354345376210E-01 
   -5.9124691217487946E-01 
   -6.0020453008867836E-01 
   -5.8956843993765728E-01 
   -5.9860412626573822E-01 
   -6.0968521310118973E-01 
   -6.1967151968342360E-01 
   -6.0810290189808047E-01 
   -6.1804499561887583E-01 
   -6.3014335404277166E-01 
   -6.4107868648485711E-01 
   -6.2840912491234902E-01 
   -6.3917312330656939E-01 
   -6.5245441440821206E-01 
   -6.6424719005612320E-01 
   -6.5031452699832504E-01 
   -5.4359443548890340E-01 
   -5.5298582793129325E-01 
   -5.4990111587165236E-01 
   -5.4053659017338973E-01 
   -5.3787185138899607E-01 
   -5.4720781334389468E-01 
   -5.4491695764851822E-01 
   -5.3561033793760082E-01 
   -5.3376291819814259E-01 
   -5.4304035908438819E-01 
   -5.4159037134950239E-01 
   -5.3234102606940914E-01 
   -5.3135650634639153E-01 
   -5.4057973023864903E-01 
   -5.4002145285312786E-01 
   -5.3082149134138035E-01 
   -5.3074830320528610E-01 
   -5.3992877966689412E-01 
   -5.4031514142520409E-01 
   -5.3114937398346829E-01 
   -5.3203717556582864E-01 
   -5.4119413631161395E-01 
   -5.4257950663624299E-01 
   -5.3342415254505338E-01 
   -5.3532265160918913E-01 
   -5.4448510695518482E-01 
   -5.4692485667990265E-01 
   -5.3774484113423726E-01 
   -5.4070261413664245E-01 
   -5.4991267005781275E-01 
   -5.5346235524674436E-01 
   -5.4420746688199184E-01 
   -5.4827034448059730E-01 
   -5.5758747243045159E-01 
   -5.6230113890640498E-01 
   -5.5290144404843222E-01 
   -5.5810996589309592E-01 
   -5.6761576728829977E-01 
   -5.7354272209736401E-01 
   -5.6390380429525344E-01 
   -5.7028917264040380E-01 
   -5.8009188116002919E-01 
   -5.8727109305526304E-01 
   -5.7727016403459885E-01 
   -5.8484825941883478E-01 
   -5.9508553272303588E-01 
   -6.0353697716530086E-01 
   -5.9302181173930268E-01 
   -6.0178555718179205E-01 
   -6.1262305466394551E-01 
   -6.2233656476833543E-01 
   -6.1113023081237394E-01 
   -6.2104238795135724E-01 
   -6.3266501748958714E-01 
   -6.4359058277296410E-01 
   -6.3150454194675076E-01 
   -6.4249570542927670E-01 
   -6.5509064363808800E-01 
   -6.6713906262993583E-01 
   -6.5399234685045027E-01 
   -6.6596964253844915E-01 
   -6.7970806246505977E-01 
   -6.9277030695912678E-01 
   -6.7840274901561082E-01 
   -5.6322206129004515E-01 
   -5.7435628981385578E-01 
   -5.7120045162518496E-01 
   -5.6010489618674353E-01 
   -5.5737499152448122E-01 
   -5.6842502126575656E-01 
   -5.6604380076487448E-01 