# vtk DataFile Version 2.0
Pressure Field Data 
ASCII 
DATASET UNSTRUCTURED_GRID 

POINTS 1089 float 

    0.0000000000000000E+00     0.0000000000000000E+00     0.0000000000000000E+00 
    1.0000000000000000E+00     0.0000000000000000E+00     0.0000000000000000E+00 
    1.0000000000000000E+00     1.0000000000000000E+00     0.0000000000000000E+00 
    0.0000000000000000E+00     1.0000000000000000E+00     0.0000000000000000E+00 
    3.1249999999941821E-02     0.0000000000000000E+00     0.0000000000000000E+00 
    6.2499999999872928E-02     0.0000000000000000E+00     0.0000000000000000E+00 
    9.3749999999823030E-02     0.0000000000000000E+00     0.0000000000000000E+00 
    1.2499999999977310E-01     0.0000000000000000E+00     0.0000000000000000E+00 
    1.5624999999968331E-01     0.0000000000000000E+00     0.0000000000000000E+00 
    1.8749999999959341E-01     0.0000000000000000E+00     0.0000000000000000E+00 
    2.1874999999950220E-01     0.0000000000000000E+00     0.0000000000000000E+00 
    2.4999999999941089E-01     0.0000000000000000E+00     0.0000000000000000E+00 
    2.8124999999931971E-01     0.0000000000000000E+00     0.0000000000000000E+00 
    3.1249999999922851E-01     0.0000000000000000E+00     0.0000000000000000E+00 
    3.4374999999913730E-01     0.0000000000000000E+00     0.0000000000000000E+00 
    3.7499999999904610E-01     0.0000000000000000E+00     0.0000000000000000E+00 
    4.0624999999895478E-01     0.0000000000000000E+00     0.0000000000000000E+00 
    4.3749999999886358E-01     0.0000000000000000E+00     0.0000000000000000E+00 
    4.6874999999877792E-01     0.0000000000000000E+00     0.0000000000000000E+00 
    4.9999999999869210E-01     0.0000000000000000E+00     0.0000000000000000E+00 
    5.3124999999876910E-01     0.0000000000000000E+00     0.0000000000000000E+00 
    5.6249999999884603E-01     0.0000000000000000E+00     0.0000000000000000E+00 
    5.9374999999892841E-01     0.0000000000000000E+00     0.0000000000000000E+00 
    6.2499999999901090E-01     0.0000000000000000E+00     0.0000000000000000E+00 
    6.5624999999909328E-01     0.0000000000000000E+00     0.0000000000000000E+00 
    6.8749999999917577E-01     0.0000000000000000E+00     0.0000000000000000E+00 
    7.1874999999925815E-01     0.0000000000000000E+00     0.0000000000000000E+00 
    7.4999999999934064E-01     0.0000000000000000E+00     0.0000000000000000E+00 
    7.8124999999942302E-01     0.0000000000000000E+00     0.0000000000000000E+00 
    8.1249999999950551E-01     0.0000000000000000E+00     0.0000000000000000E+00 
    8.4374999999958789E-01     0.0000000000000000E+00     0.0000000000000000E+00 
    8.7499999999967026E-01     0.0000000000000000E+00     0.0000000000000000E+00 
    9.0624999999975264E-01     0.0000000000000000E+00     0.0000000000000000E+00 
    9.3749999999983513E-01     0.0000000000000000E+00     0.0000000000000000E+00 
    9.6874999999991751E-01     0.0000000000000000E+00     0.0000000000000000E+00 
    1.0000000000000000E+00     3.1249999999941821E-02     0.0000000000000000E+00 
    1.0000000000000000E+00     6.2499999999872928E-02     0.0000000000000000E+00 
    1.0000000000000000E+00     9.3749999999823030E-02     0.0000000000000000E+00 
    1.0000000000000000E+00     1.2499999999977310E-01     0.0000000000000000E+00 
    1.0000000000000000E+00     1.5624999999968331E-01     0.0000000000000000E+00 
    1.0000000000000000E+00     1.8749999999959341E-01     0.0000000000000000E+00 
    1.0000000000000000E+00     2.1874999999950220E-01     0.0000000000000000E+00 
    1.0000000000000000E+00     2.4999999999941089E-01     0.0000000000000000E+00 
    1.0000000000000000E+00     2.8124999999931971E-01     0.0000000000000000E+00 
    1.0000000000000000E+00     3.1249999999922851E-01     0.0000000000000000E+00 
    1.0000000000000000E+00     3.4374999999913730E-01     0.0000000000000000E+00 
    1.0000000000000000E+00     3.7499999999904610E-01     0.0000000000000000E+00 
    1.0000000000000000E+00     4.0624999999895478E-01     0.0000000000000000E+00 
    1.0000000000000000E+00     4.3749999999886358E-01     0.0000000000000000E+00 
    1.0000000000000000E+00     4.6874999999877792E-01     0.0000000000000000E+00 
    1.0000000000000000E+00     4.9999999999869210E-01     0.0000000000000000E+00 
    1.0000000000000000E+00     5.3124999999876910E-01     0.0000000000000000E+00 
    1.0000000000000000E+00     5.6249999999884603E-01     0.0000000000000000E+00 
    1.0000000000000000E+00     5.9374999999892841E-01     0.0000000000000000E+00 
    1.0000000000000000E+00     6.2499999999901090E-01     0.0000000000000000E+00 
    1.0000000000000000E+00     6.5624999999909328E-01     0.0000000000000000E+00 
    1.0000000000000000E+00     6.8749999999917577E-01     0.0000000000000000E+00 
    1.0000000000000000E+00     7.1874999999925815E-01     0.0000000000000000E+00 
    1.0000000000000000E+00     7.4999999999934064E-01     0.0000000000000000E+00 
    1.0000000000000000E+00     7.8124999999942302E-01     0.0000000000000000E+00 
    1.0000000000000000E+00     8.1249999999950551E-01     0.0000000000000000E+00 
    1.0000000000000000E+00     8.4374999999958789E-01     0.0000000000000000E+00 
    1.0000000000000000E+00     8.7499999999967026E-01     0.0000000000000000E+00 
    1.0000000000000000E+00     9.0624999999975264E-01     0.0000000000000000E+00 
    1.0000000000000000E+00     9.3749999999983513E-01     0.0000000000000000E+00 
    1.0000000000000000E+00     9.6874999999991751E-01     0.0000000000000000E+00 
    9.6874999999986700E-01     1.0000000000000000E+00     0.0000000000000000E+00 
    9.3749999999973976E-01     1.0000000000000000E+00     0.0000000000000000E+00 
    9.0624999999967670E-01     1.0000000000000000E+00     0.0000000000000000E+00 
    8.7499999999950118E-01     1.0000000000000000E+00     0.0000000000000000E+00 
    8.4374999999971556E-01     1.0000000000000000E+00     0.0000000000000000E+00 
    8.1249999999991318E-01     1.0000000000000000E+00     0.0000000000000000E+00 
    7.8125000000010270E-01     1.0000000000000000E+00     0.0000000000000000E+00 
    7.5000000000034706E-01     1.0000000000000000E+00     0.0000000000000000E+00 
    7.1875000000056688E-01     1.0000000000000000E+00     0.0000000000000000E+00 
    6.8750000000078049E-01     1.0000000000000000E+00     0.0000000000000000E+00 
    6.5625000000097422E-01     1.0000000000000000E+00     0.0000000000000000E+00 
    6.2500000000121403E-01     1.0000000000000000E+00     0.0000000000000000E+00 
    5.9375000000151579E-01     1.0000000000000000E+00     0.0000000000000000E+00 
    5.6250000000164757E-01     1.0000000000000000E+00     0.0000000000000000E+00 
    5.3125000000182365E-01     1.0000000000000000E+00     0.0000000000000000E+00 
    5.0000000000205946E-01     1.0000000000000000E+00     0.0000000000000000E+00 
    4.6875000000194023E-01     1.0000000000000000E+00     0.0000000000000000E+00 
    4.3750000000182099E-01     1.0000000000000000E+00     0.0000000000000000E+00 
    4.0625000000169093E-01     1.0000000000000000E+00     0.0000000000000000E+00 
    3.7500000000156092E-01     1.0000000000000000E+00     0.0000000000000000E+00 
    3.4375000000143069E-01     1.0000000000000000E+00     0.0000000000000000E+00 
    3.1250000000130068E-01     1.0000000000000000E+00     0.0000000000000000E+00 
    2.8125000000117062E-01     1.0000000000000000E+00     0.0000000000000000E+00 
    2.5000000000104050E-01     1.0000000000000000E+00     0.0000000000000000E+00 
    2.1875000000091041E-01     1.0000000000000000E+00     0.0000000000000000E+00 
    1.8750000000078040E-01     1.0000000000000000E+00     0.0000000000000000E+00 
    1.5625000000065031E-01     1.0000000000000000E+00     0.0000000000000000E+00 
    1.2500000000052031E-01     1.0000000000000000E+00     0.0000000000000000E+00 
    9.3750000000390132E-02     1.0000000000000000E+00     0.0000000000000000E+00 
    6.2500000000260125E-02     1.0000000000000000E+00     0.0000000000000000E+00 
    3.1250000000130007E-02     1.0000000000000000E+00     0.0000000000000000E+00 
    0.0000000000000000E+00     9.6874999999986700E-01     0.0000000000000000E+00 
    0.0000000000000000E+00     9.3749999999973976E-01     0.0000000000000000E+00 
    0.0000000000000000E+00     9.0624999999967670E-01     0.0000000000000000E+00 
    0.0000000000000000E+00     8.7499999999950118E-01     0.0000000000000000E+00 
    0.0000000000000000E+00     8.4374999999971556E-01     0.0000000000000000E+00 
    0.0000000000000000E+00     8.1249999999991318E-01     0.0000000000000000E+00 
    0.0000000000000000E+00     7.8125000000010270E-01     0.0000000000000000E+00 
    0.0000000000000000E+00     7.5000000000034706E-01     0.0000000000000000E+00 
    0.0000000000000000E+00     7.1875000000056688E-01     0.0000000000000000E+00 
    0.0000000000000000E+00     6.8750000000078049E-01     0.0000000000000000E+00 
    0.0000000000000000E+00     6.5625000000097422E-01     0.0000000000000000E+00 
    0.0000000000000000E+00     6.2500000000121403E-01     0.0000000000000000E+00 
    0.0000000000000000E+00     5.9375000000151579E-01     0.0000000000000000E+00 
    0.0000000000000000E+00     5.6250000000164757E-01     0.0000000000000000E+00 
    0.0000000000000000E+00     5.3125000000182365E-01     0.0000000000000000E+00 
    0.0000000000000000E+00     5.0000000000205946E-01     0.0000000000000000E+00 
    0.0000000000000000E+00     4.6875000000194023E-01     0.0000000000000000E+00 
    0.0000000000000000E+00     4.3750000000182099E-01     0.0000000000000000E+00 
    0.0000000000000000E+00     4.0625000000169093E-01     0.0000000000000000E+00 
    0.0000000000000000E+00     3.7500000000156092E-01     0.0000000000000000E+00 
    0.0000000000000000E+00     3.4375000000143069E-01     0.0000000000000000E+00 
    0.0000000000000000E+00     3.1250000000130068E-01     0.0000000000000000E+00 
    0.0000000000000000E+00     2.8125000000117062E-01     0.0000000000000000E+00 
[...]
CELL_DATA 1024 
SCALARS Pressure float 1 
LOOKUP_TABLE default 

   -1.3541493479542499E-01 
   -1.3345873960287322E-01 
   -1.2798072535912877E-01 
   -1.2612963395592924E-01 
   -1.1939974617630499E-01 
   -1.2267801273954472E-01 
   -1.1809422082666929E-01 
   -1.1423982219477070E-01 
   -1.1018686525468208E-01 
   -1.1427860836335187E-01 
   -1.1117432983445207E-01 
   -1.0699643263285612E-01 
   -1.0451980331832236E-01 
   -1.0871114857623750E-01 
   -1.0682512326490488E-01 
   -1.0265505892430064E-01 
   -1.0132971760561767E-01 
   -1.0546253957852533E-01 
   -1.0457944506820857E-01 
   -1.0049151023903810E-01 
   -1.0009919426449931E-01 
   -1.0413849946019621E-01 
   -1.0410547235135305E-01 
   -1.0011523971591677E-01 
   -1.0050216296786767E-01 
   -1.0444696081360627E-01 
   -1.0512955604524887E-01 
   -1.0122143847554760E-01 
   -1.0223380749249647E-01 
   -1.0612007597754329E-01 
   -1.0738682930412070E-01 
   -1.0350190470722063E-01 
   -1.0499634072392654E-01 
   -1.0890205159173325E-01 
   -1.1064410624888485E-01 
   -1.0670193841859225E-01 
   -1.0861563588301845E-01 
   -1.1259641094803574E-01 
   -1.1474097839067847E-01 
   -1.1073102677355551E-01 
   -1.1301918554753770E-01 
   -1.1704935738228654E-01 
   -1.1947866065311223E-01 
   -1.1542420026456321E-01 
   -1.1787848933688540E-01 
   -1.2197679138038602E-01 
   -1.2449185617011863E-01 
   -1.2032325944991328E-01 
   -1.2271742318829319E-01 
   -1.2697771079870082E-01 
   -1.2939217642894491E-01 
   -1.2503080873867378E-01 
   -1.2722919685988693E-01 
   -1.3169008402747251E-01 
   -1.3381608426654881E-01 
   -1.2926362549504067E-01 
   -1.3107350457075151E-01 
   -1.3570099981622524E-01 
   -1.3725951051028754E-01 
   -1.3260486660188925E-01 
   -1.3384424343479584E-01 
   -1.3837596742031372E-01 
   -1.3884203062916614E-01 
   -1.3492230140194011E-01 
   -1.3358183205114688E-01 
   -1.3462689121428839E-01 
   -1.3101094542965078E-01 
   -1.2943590411602487E-01 
   -1.2515221358533796E-01 
   -1.2733244366592605E-01 
   -1.2384856623245126E-01 
   -1.2118555745945622E-01 
   -1.1771970354347772E-01 
   -1.2072160008252671E-01 
   -1.1803274306056667E-01 
   -1.1480629005001938E-01 
   -1.1244191508782772E-01 
   -1.1581289776781568E-01 
   -1.1406527872348195E-01 
   -1.1060228659563048E-01 
   -1.0925684986363475E-01 
   -1.1277890665119082E-01 
   -1.1193619520309002E-01 
   -1.0837485023599039E-01 
   -1.0792675931363561E-01 
   -1.1151649921325579E-01 
   -1.1149750005021790E-01 
   -1.0788384487784831E-01 
   -1.0821748118691858E-01 
   -1.1185569330816732E-01 
   -1.1256668082045179E-01 
   -1.0889887451013106E-01 
   -1.0989929224844668E-01 
   -1.1360554592442959E-01 
   -1.1494719938826992E-01 
   -1.1119066464983830E-01 
   -1.1274661252000379E-01 
   -1.1656684009743193E-01 
   -1.1844024130544385E-01 
   -1.1454320371100733E-01 
   -1.1655819619547028E-01 
   -1.2054322577546640E-01 
   -1.2285018608423487E-01 
   -1.1876810974695710E-01 
   -1.2114393558489836E-01 
   -1.2533197315372344E-01 
   -1.2795427077316868E-01 
   -1.2364847152760464E-01 
   -1.2623771630899974E-01 
   -1.3067767296182081E-01 
   -1.3345919852627977E-01 
   -1.2886488306479241E-01 
   -1.3148333519676383E-01 
   -1.3625363299021581E-01 
   -1.3901334739106067E-01 
   -1.3404615530276875E-01 
   -1.3650262165234542E-01 
   -1.4168637002685519E-01 
   -1.4421325241760019E-01 
   -1.3879331350084131E-01 
   -1.4084519708733648E-01 
   -1.4652331098661572E-01 
   -1.4853002032949875E-01 
   -1.4256528494758253E-01 
   -1.4382666667284397E-01 
   -1.5012432416664090E-01 
   -1.5116587619625432E-01 
   -1.4443546499588211E-01 
   -1.3614616832931759E-01 
   -1.3796012979335548E-01 
   -1.3471533037114247E-01 
   -1.3277322119729387E-01 
   -1.2944861933880214E-01 
   -1.3160570363901233E-01 
   -1.2870360402299913E-01 
   -1.2630772301031271E-01 
   -1.2346373317158012E-01 
   -1.2608252218795737E-01 
   -1.2380044615212038E-01 
   -1.2099109572152750E-01 
   -1.1893073930020349E-01 
   -1.2189617413591664E-01 
   -1.2039168978297705E-01 
   -1.1729995975699162E-01 
   -1.1610080595540449E-01 
   -1.1929605233489381E-01 
   -1.1860915508358687E-01 
   -1.1532613547210409E-01 
   -1.1496330593978693E-01 
   -1.1832458086497064E-01 
   -1.1843153007204811E-01 
   -1.1499620725167382E-01 
   -1.1540634081911365E-01 
   -1.1891602311786248E-01 
   -1.1976167246509174E-01 
   -1.1617347509981005E-01 
   -1.1727618870323753E-01 
   -1.2095030293805990E-01 
   -1.2246230318145386E-01 
   -1.1869218119774431E-01 
   -1.2039851413115764E-01 
   -1.2427681031153763E-01 
   -1.2637180121422928E-01 
   -1.2237174874456934E-01 
   -1.2458762827249585E-01 
   -1.2872392803456822E-01 
   -1.3130807019434815E-01 
   -1.2702026950011680E-01 
   -1.2964105199566175E-01 
   -1.3409671082619223E-01 
   -1.3705935892637733E-01 
   -1.3241765178350592E-01 
   -1.3531375682012342E-01 
   -1.4016223781043805E-01 
   -1.4336831153364510E-01 
   -1.3828950372633761E-01 
   -1.4130198358010260E-01 
   -1.4663741396972413E-01 
   -1.4992612040253731E-01 
   -1.4430508500348713E-01 
   -1.4724842119757042E-01 
   -1.5318719379264503E-01 
   -1.5636868399493400E-01 
   -1.5007551521728907E-01 
   -1.5272160523671471E-01 
   -1.5941295157969840E-01 
   -1.6225604636376079E-01 
   -1.5511140115898858E-01 
   -1.5715727919487629E-01 
   -1.6482815913314397E-01 
   -1.6705661565844113E-01 
   -1.5875990643740245E-01 
   -1.4000177569036557E-01 
   -1.4225621451673304E-01 
   -1.3913784066002399E-01 
   -1.3683335069813812E-01 
   -1.3386192577683667E-01 
   -1.3626062654105420E-01 
   -1.3364965296914225E-01 
   -1.3112842704738747E-01 
   -1.2868017641805252E-01 
   -1.3133618171845615E-01 
   -1.2935091267440474E-01 
   -1.2655966036501154E-01 
   -1.2479936245785619E-01 
   -1.2771968386679353E-01 
   -1.2646167596680777E-01 
   -1.2342090389044569E-01 
   -1.2243617058849011E-01 
   -1.2558919440975871E-01 
   -1.2510830833375808E-01 
   -1.2184917138645517E-01 
   -1.2165784529815479E-01 
   -1.2501978083476928E-01 
   -1.2532003485624135E-01 
   -1.2185554554305729E-01 
   -1.2243210307508040E-01 
   -1.2600196738100883E-01 
   -1.2705554462270721E-01 
   -1.2337454780898463E-01 
   -1.2466769611278831E-01 
   -1.2846829363641893E-01 
   -1.3022564097484582E-01 
   -1.2629452072048536E-01 
   -1.2823634131621298E-01 
   -1.3231110996338991E-01 
   -1.3470641404091924E-01 
   -1.3047290941909259E-01 
   -1.3298233976116242E-01 
   -1.3739144319237492E-01 
   -1.4034415046879059E-01 
   -1.3574087354006398E-01 
   -1.3872251834263638E-01 
   -1.4354034985525518E-01 
   -1.4695350697679277E-01 
   -1.4189869839613997E-01 
   -1.4523801319314664E-01 
   -1.5055457981935447E-01 
   -1.5431193634210905E-01 
   -1.4870615070495335E-01 
   -1.5226588578052624E-01 
   -1.5819133817406691E-01 
   -1.6215593832464137E-01 
   -1.5587700937859364E-01 
   -1.5949610607804929E-01 
   -1.6616626736294723E-01 
   -1.7018025664719938E-01 
   -1.6307623593334492E-01 
   -1.6656672267127587E-01 
   -1.7415343946897588E-01 
   -1.7803956167939086E-01 
   -1.6991339507099124E-01 
   -1.7305981176177443E-01 
   -1.8179191699720471E-01 
   -1.8536575596928162E-01 
   -1.7595024903582865E-01 
   -1.4473488098238141E-01 
   -1.4746349362568190E-01 
   -1.4440542280873434E-01 
   -1.4165149016088230E-01 
   -1.3884186393666920E-01 
   -1.4164618302352977E-01 
   -1.3919824324956306E-01 
   -1.3632286401863594E-01 
   -1.3411611876301335E-01 
   -1.3707747432197545E-01 
   -1.3530090904456638E-01 
   -1.3224412684466225E-01 
   -1.3072717541433562E-01 
   -1.3388465986112366E-01 
   -1.3284245388309729E-01 
   -1.2958156412238542E-01 
   -1.2881888491448593E-01 
   -1.3218481539114194E-01 
   -1.3191877079364764E-01 
   -1.2844601253085725E-01 
   -1.2846544368753199E-01 
   -1.3204785507632033E-01 
   -1.3257230534389425E-01 
   -1.2887581325387934E-01 
   -1.2967243621228203E-01 
   -1.3348935811917553E-01 
   -1.3479354563916582E-01 
   -1.3084775413056113E-01 
   -1.3239171510730433E-01 
   -1.3647696996914474E-01 
   -1.3852951095485061E-01 
   -1.3429204987964713E-01 
   -1.3653445190395877E-01 
   -1.4093897046201764E-01 
   -1.4369116225800199E-01 
   -1.3910267596300796E-01 
   -1.4197855577645938E-01 
   -1.4676994449362271E-01 
   -1.5015720871049584E-01 
   -1.4514195841213401E-01 
   -1.4857067958582837E-01 
   -1.5383283236339282E-01 
   -1.5777462028428721E-01 
   -1.5224032578604083E-01 
   -1.5612422392857050E-01 
   -1.6195826514519748E-01 
   -1.6635734471377836E-01 
   -1.6019337835251243E-01 
   -1.6441648288371416E-01 
   -1.7094336891969719E-01 
   -1.7568588581709052E-01 
   -1.6875998055820121E-01 
   -1.7318817493240563E-01 
   -1.8055266156665264E-01 
   -1.8550996760954269E-01 
   -1.7766343453515768E-01 
   -1.8214658290278524E-01 
   -1.9052303271078597E-01 
   -1.9555673616170524E-01 
   -1.8659761274248993E-01 
   -1.9097688887763928E-01 
   -2.0057661857707290E-01 
   -2.0555024531167929E-01 
   -1.9524697234935257E-01 
   -1.5047596250168901E-01 
   -1.5381111504554518E-01 
   -1.5078454198030183E-01 
   -1.4743632939332249E-01 
   -1.4471553117683986E-01 
   -1.4809324475595448E-01 
   -1.4574599996429993E-01 
   -1.4232364371065642E-01 
   -1.4027310087591083E-01 
   -1.4375321312524528E-01 
   -1.4212612858661891E-01 
   -1.3857738722913693E-01 
   -1.3724966386354681E-01 
   -1.4087592427234169E-01 
   -1.4001288425142597E-01 
   -1.3630164705242165E-01 
   -1.3574285392622809E-01 
   -1.3954576001124239E-01 
   -1.3948136738112274E-01 
   -1.3558021039889412E-01 
   -1.3581789889111459E-01 
   -1.3982436808686444E-01 
   -1.4057717211175219E-01 
   -1.3645735939552112E-01 
   -1.3749740075611414E-01 
   -1.4173993008448665E-01 
   -1.4331058553498388E-01 
   -1.3893436007235474E-01 
   -1.4076227791991000E-01 
   -1.4528496190366377E-01 
   -1.4765684733032836E-01 
   -1.4297304286522336E-01 
   -1.4555649482876221E-01 
   -1.5041805798221997E-01 
   -1.5355847966775679E-01 
   -1.4850049395494458E-01 
   -1.5179095385693472E-01 
   -1.5706609026712759E-01 
   -1.6092696356630135E-01 
   -1.5541184491739599E-01 
   -1.5934517644093657E-01 
   -1.6512526203518407E-01 
   -1.6964322977161628E-01 
   -1.6357097332881040E-01 
   -1.6806726941166586E-01 
   -1.7446120232564633E-01 
   -1.7955764830227400E-01 
   -1.7281013388986863E-01 
   -1.7777374479359742E-01 
   -1.8490925607203379E-01 
   -1.9049107891922501E-01 
   -1.8293052293252726E-01 
   -1.8825134312724695E-01 
   -1.9627675331224742E-01 
   -2.0223880741809369E-01 
   -1.9370584735622384E-01 
   -1.9926289406760941E-01 
   -2.0834907892897683E-01 
   -2.1457925888042112E-01 
   -2.0489118213491000E-01 
   -2.1056007887782982E-01 
   -2.2090156735055536E-01 
   -2.2728954283650465E-01 
   -2.1624064776331595E-01 
   -1.5751085281928104E-01 
   -1.6161907923028454E-01 
   -1.5860546125641758E-01 
   -1.5449279857240941E-01 
   -1.5182380030591405E-01 
   -1.5595255049513132E-01 
   -1.5366816508136782E-01 
   -1.4951196413257806E-01 
   -1.4756654151100237E-01 
   -1.5176096150242485E-01 
   -1.5024009317100323E-01 
   -1.4599742621548958E-01 
   -1.4481454669383018E-01 
   -1.4911478761735578E-01 
   -1.4839390488135770E-01 
   -1.4402726359800794E-01 
   -1.4364385302994365E-01 
   -1.4808552791403592E-01 
   -1.4819663470535835E-01 
   -1.4367113272894161E-01 
   -1.4411422258541690E-01 
   -1.4873286230571503E-01 
   -1.4969834528460430E-01 
   -1.4497640089924588E-01 
   -1.4625902898606313E-01 
   -1.5109560442927808E-01 
   -1.5292548092185945E-01 
   -1.4796153084906552E-01 
   -1.5008141034605021E-01 
   -1.5518710379233472E-01 
   -1.5787787485594879E-01 
   -1.5261428161793322E-01 
   -1.5555389405779685E-01 
   -1.6099345777174598E-01 
   -1.6452776092023760E-01 
   -1.5889214457999642E-01 
   -1.6261908083962720E-01 
   -1.6847291622910759E-01 
   -1.7281925427145128E-01 
   -1.6672289496065168E-01 
   -1.7118991312077847E-01 
   -1.7755527966183057E-01 
   -1.8266765386669670E-01 
   -1.7600458969096214E-01 
   -1.8114951913911020E-01 
   -1.8814119644843275E-01 
   -1.9395891710139782E-01 
   -1.8660547912262904E-01 
   -1.9235151724515953E-01 
   -2.0010209045189314E-01 
   -2.0655038473693543E-01 
   -1.9836509352851406E-01 
   -2.0462229043412530E-01 
   -2.1328205404702263E-01 
   -2.2027420140240900E-01 
   -2.1109810171761251E-01 
   -2.1776680950748720E-01 
   -2.2750311594986600E-01 
   -2.3494468139823785E-01 
   -2.2460245394905337E-01 
   -2.3157938986675217E-01 
   -2.4257484421001002E-01 
   -2.5037011911034518E-01 
   -2.3867290858412246E-01 
   -1.6618107955668257E-01 
   -1.7124316025083294E-01 
   -1.6822694576149755E-01 
   -1.6316804650708330E-01 
   -1.6052554268292438E-01 
   -1.6558940218435397E-01 
   -1.6333844276744333E-01 
   -1.5826134648867868E-01 
   -1.5638389052606935E-01 
   -1.6148253516721892E-01 
   -1.6003050709854455E-01 
   -1.5490201313308549E-01 
   -1.5382464979908939E-01 
   -1.5899130868700823E-01 
   -1.5837375695552275E-01 
   -1.5316050243721216E-01 
   -1.5291771555400707E-01 
   -1.5818627805564453E-01 
   -1.5843667222980554E-01 
   -1.5310359671107338E-01 
   -1.5372439694534479E-01 
   -1.5913191612839386E-01 
   -1.6027800736436359E-01 
   -1.5478514779338354E-01 
   -1.5628953417295427E-01 
   -1.6187983471979775E-01 
   -1.6394107152080542E-01 
   -1.5823980153612727E-01 
   -1.6063669002023964E-01 
   -1.6646408859869244E-01 
   -1.6944987831379996E-01 
   -1.6347938419109359E-01 
   -1.6676546984632643E-01 
   -1.7289798374390833E-01 
   -1.7680642542772496E-01 
   -1.7049088822821343E-01 
   -1.7464988761244177E-01 
   -1.8117162415066193E-01 
   -1.8598832071700513E-01 
   -1.7923497322452034E-01 
   -1.8423685919187602E-01 
   -1.9124949645461875E-01 
   -1.9694630092927376E-01 
   -1.8964442896778524E-01 
   -1.9544471413996442E-01 
   -2.0306799668018988E-01 
   -2.0960193344695510E-01 
   -2.0162290358607260E-01 
   -2.0816239519106486E-01 
   -2.1653356543022834E-01 
   -2.2384652443241010E-01 
   -2.1504490134907309E-01 
   -2.2225061718260167E-01 
   -2.3152275895993091E-01 
   -2.3954274427669608E-01 
   -2.2975845658717631E-01 
   -2.3754635563686322E-01 
   -2.4788576099095064E-01 
   -2.5653023077340331E-01 
   -2.4559163572106463E-01 
   -2.5387141076494968E-01 
   -2.6545408890814792E-01 
   -2.7463516676554306E-01 
   -2.6236301511635890E-01 
   -1.7685245242295733E-01 
   -1.8305681854064820E-01 
   -1.8002281125494990E-01 
   -1.7382927587159586E-01 
   -1.7119127991790947E-01 
   -1.7737884265253903E-01 
   -1.7513347815931915E-01 
   -1.6894664696287809E-01 
   -1.6710407221934898E-01 
   -1.7329579454104643E-01 
   -1.7187523019588088E-01 
   -1.6567259976876531E-01 
   -1.6466142895889516E-01 
   -1.7088141820518266E-01 
   -1.7032401567234109E-01 
   -1.6407970952317644E-01 
   -1.6393633407905916E-01 
   -1.7021253460859620E-01 
   -1.7055618160220956E-01 
   -1.6423974265689292E-01 
   -1.6499774945957635E-01 
   -1.7136371102596631E-01 
   -1.7264329858864591E-01 
   -1.6621739987409484E-01 
   -1.6790484619332696E-01 
   -1.7440242808981896E-01 
   -1.7664778504753373E-01 
   -1.7006523725319928E-01 
   -1.7270261961737743E-01 
   -1.7938515407392258E-01 
   -1.8261931469207016E-01 
   -1.7581984393198055E-01 
   -1.7941847161170163E-01 
   -1.8635393091830493E-01 
   -1.9059142940921242E-01 
   -1.8349867593581465E-01 
   -1.8805913524981474E-01 
   -1.9533286318173645E-01 
   -2.0057776050755355E-01 
   -1.9309691874622817E-01 
   -1.9860736842213933E-01 
   -2.0632396193098690E-01 
   -2.1256745225374807E-01 
   -2.0458398400258082E-01 
   -2.1101832131748538E-01 
   -2.1930219895459865E-01 
   -2.2652001345991984E-01 
   -2.1789991813438700E-01 
   -2.2521626372520598E-01 
   -2.3421045590398160E-01 
   -2.4236080615186989E-01 
   -2.3295282865968900E-01 
   -2.4109316862591021E-01 
   -2.5095612223471303E-01 
   -2.5997940033790817E-01 
   -2.4961910981700861E-01 
   -2.5851101349715438E-01 
   -2.6941183721170503E-01 
   -2.7923317741212744E-01 
   -2.6774810490732470E-01 
   -2.7730883947688073E-01 
   -2.8942210825208103E-01 
   -2.9995665178499081E-01 
   -2.8717127132886155E-01 
   -1.8990483627189050E-01 
   -1.9744583875175306E-01 
   -1.9437790038906724E-01 
   -1.8685597862942149E-01 
   -1.8420029825191883E-01 
   -1.9170445294133318E-01 
   -1.8943515807813749E-01 
   -1.8194685134614857E-01 
   -1.8010523096492778E-01 
   -1.8758025621143107E-01 
   -1.8615040546642916E-01 
   -1.7868541833699741E-01 
   -1.7769763026601454E-01 
   -1.8515653348981892E-01 
   -1.8460970823833625E-01 
   -1.7715217226794647E-01 
   -1.7705930011973023E-01 
   -1.8452102679641558E-01 
   -1.8490151900828866E-01 
   -1.7742909167814955E-01 
   -1.7827132869353660E-01 
   -1.8576206100646114E-01 
   -1.8711329683459607E-01 
   -1.7959539158445512E-01 
   -1.8141016231421933E-01 
   -1.8896556332616060E-01 
   -1.9132881128439530E-01 
   -1.8372392854517217E-01 
   -1.8654428448636690E-01 
   -1.9421251705361064E-01 
   -1.9762557841096609E-01 
   -1.8987802309045682E-01 
   -1.9373101444195745E-01 
   -2.0157618863449592E-01 
   -2.0607168217228630E-01 
   -1.9810806486635388E-01 
   -2.0301275264152790E-01 
   -2.1111834592408338E-01 
   -2.1672119176445584E-01 
   -2.0844723841418195E-01 
   -2.1441205180109765E-01 
   -2.2288368902698918E-01 
   -2.2960746067864998E-01 
   -2.2090586024259673E-01 
   -2.2792523214242905E-01 
   -2.3689195432603999E-01 
   -2.4473410921049607E-01 
   -2.3546441346678082E-01 
   -2.4351514432357926E-01 
   -2.5312805234880603E-01 
   -2.6206486897133496E-01 
   -2.5206654779399823E-01 
   -2.6110512468195329E-01 
   -2.7153250043299815E-01 
   -2.8151582074151055E-01 
   -2.7061488150795371E-01 
   -2.8057760209088933E-01 
   -2.9199692368097896E-01 
   -3.0295561160645412E-01 
   -2.9097324517179518E-01 
   -3.0178041690346280E-01 
   -3.1437001834806066E-01 
   -3.2621724115994705E-01 
   -3.1297683971576706E-01 
   -2.0573000050360360E-01 
   -2.1480847090165439E-01 
   -2.1168849567749590E-01 
   -2.0263847528020029E-01 
   -1.9994079136273235E-01 
   -2.0895957647857952E-01 
   -2.0663304428711021E-01 
   -1.9764735325900112E-01 
   -1.9576919173866394E-01 
   -2.0472089446423800E-01 
   -2.0323554653429307E-01 
   -1.9431777415521814E-01 
   -1.9330485192502012E-01 
   -2.0218968029495504E-01 
   -2.0159613990302302E-01 
   -1.9274234657021622E-01 
   -1.9264226706039383E-01 
   -2.0146788699907575E-01 
   -2.0181798336289478E-01 
   -1.9301664870995394E-01 
   -1.9387750361575778E-01 
   -2.0265958666429457E-01 
   -2.0400594803687427E-01 
   -1.9523677599334455E-01 
   -1.9710629611902900E-01 
   -2.0587040331003245E-01 
   -2.0826635057877296E-01 
   -1.9949772570739491E-01 
   -2.0242248794814960E-01 
   -2.1120720712900559E-01 
   -2.1470633827598606E-01 
   -2.0589167526083671E-01 
   -2.0991592737338993E-01 
   -2.1877694958844848E-01 
   -2.2343193223132593E-01 
   -2.1450527143830944E-01 
   -2.1966891551270465E-01 
   -2.2868364940650113E-01 
   -2.3454365073166619E-01 
   -2.2541498730036602E-01 
   -2.3175021226824719E-01 
   -2.4102230176590361E-01 
   -2.4812831912160074E-01 
   -2.3867953001036074E-01 
   -2.4620565614350945E-01 
   -2.5586820963442503E-01 
   -2.6424562733102475E-01 
   -2.5432861012613989E-01 
   -2.6304524753774244E-01 
   -2.7326068678694343E-01 
   -2.8290930672410736E-01 
   -2.7234885713095514E-01 
   -2.8222890366778902E-01 
   -2.9318269982990453E-01 
   -3.0406716171720011E-01 
   -2.9267100767638893E-01 
   -3.0365723846741499E-01 
   -3.1554431905412456E-01 
   -3.2759193815317034E-01 
   -3.1516674195251876E-01 
   -3.2717662552761678E-01 
   -3.4018523917388749E-01 
   -3.5329842011333090E-01 
   -3.3966290238224872E-01 
   -2.2473356561345703E-01 
   -2.3555904353734855E-01 
   -2.3236551264530006E-01 
   -2.2157980569139152E-01 
   -2.1881196707670642E-01 
   -2.2955015005577478E-01 
   -2.2712710309901976E-01 