# vtk DataFile Version 2.0
Pressure Field Data 
ASCII 
DATASET UNSTRUCTURED_GRID 

POINTS 169 float 

    0.0000000000000000E+00     0.0000000000000000E+00     0.0000000000000000E+00 
    1.0000000000000000E+00     0.0000000000000000E+00     0.0000000000000000E+00 
    1.0000000000000000E+00     1.0000000000000000E+00     0.0000000000000000E+00 
    0.0000000000000000E+00     1.0000000000000000E+00     0.0000000000000000E+00 
    5.0000000000000000E-01     0.0000000000000000E+00     0.0000000000000000E+00 
    5.0000000000000000E-01     1.0000000000000000E+00     0.0000000000000000E+00 
    1.0000000000000000E+00     8.0000000000000004E-01     0.0000000000000000E+00 
    8.2999999999999996E-01     8.0000000000000004E-01     0.0000000000000000E+00 
    6.6000000000000003E-01     2.0000000000000001E-01     0.0000000000000000E+00 
    3.4000000000000002E-01     8.0000000000000004E-01     0.0000000000000000E+00 
    1.7000000000000001E-01     2.0000000000000001E-01     0.0000000000000000E+00 
    0.0000000000000000E+00     2.0000000000000001E-01     0.0000000000000000E+00 
    1.7000000000000001E-01     0.0000000000000000E+00     0.0000000000000000E+00 
    1.7000000000000001E-01     1.0000000000000000E+00     0.0000000000000000E+00 
    3.4000000000000002E-01     1.0000000000000000E+00     0.0000000000000000E+00 
    3.4000000000000002E-01     0.0000000000000000E+00     0.0000000000000000E+00 
    6.6000000000000003E-01     0.0000000000000000E+00     0.0000000000000000E+00 
    6.6000000000000003E-01     1.0000000000000000E+00     0.0000000000000000E+00 
    8.2999999999999996E-01     1.0000000000000000E+00     0.0000000000000000E+00 
    8.2999999999999996E-01     0.0000000000000000E+00     0.0000000000000000E+00 
    5.0000000000000000E-01     5.0000000000000000E-01     0.0000000000000000E+00 
    8.4999999999781806E-02     0.0000000000000000E+00     0.0000000000000000E+00 
    2.5499999999978301E-01     0.0000000000000000E+00     0.0000000000000000E+00 
    4.1999999999977228E-01     0.0000000000000000E+00     0.0000000000000000E+00 
    5.7999999999984830E-01     0.0000000000000000E+00     0.0000000000000000E+00 
    7.4499999999969624E-01     0.0000000000000000E+00     0.0000000000000000E+00 
    9.1499999999980464E-01     0.0000000000000000E+00     0.0000000000000000E+00 
    1.0000000000000000E+00     1.3333333333306890E-01     0.0000000000000000E+00 
    1.0000000000000000E+00     2.6666666666600858E-01     0.0000000000000000E+00 
    1.0000000000000000E+00     3.9999999999894842E-01     0.0000000000000000E+00 
    1.0000000000000000E+00     5.3333333333261779E-01     0.0000000000000000E+00 
    1.0000000000000000E+00     6.6666666666631980E-01     0.0000000000000000E+00 
    1.0000000000000000E+00     8.3333333333322490E-01     0.0000000000000000E+00 
    1.0000000000000000E+00     8.6666666666642811E-01     0.0000000000000000E+00 
    1.0000000000000000E+00     8.9999999999982638E-01     0.0000000000000000E+00 
    1.0000000000000000E+00     9.3333333333322477E-01     0.0000000000000000E+00 
    1.0000000000000000E+00     9.6666666666660150E-01     0.0000000000000000E+00 
    9.1500000000028214E-01     1.0000000000000000E+00     0.0000000000000000E+00 
    7.4500000000030375E-01     1.0000000000000000E+00     0.0000000000000000E+00 
    5.8000000000019514E-01     1.0000000000000000E+00     0.0000000000000000E+00 
    4.2000000000019527E-01     1.0000000000000000E+00     0.0000000000000000E+00 
    2.5500000000020051E-01     1.0000000000000000E+00     0.0000000000000000E+00 
    8.5000000000214265E-02     1.0000000000000000E+00     0.0000000000000000E+00 
    0.0000000000000000E+00     8.6666666666703562E-01     0.0000000000000000E+00 
    0.0000000000000000E+00     7.3333333333407114E-01     0.0000000000000000E+00 
    0.0000000000000000E+00     6.0000000000108500E-01     0.0000000000000000E+00 
    0.0000000000000000E+00     4.6666666666741158E-01     0.0000000000000000E+00 
    0.0000000000000000E+00     3.3333333333369503E-01     0.0000000000000000E+00 
    0.0000000000000000E+00     1.6666666666675889E-01     0.0000000000000000E+00 
    0.0000000000000000E+00     1.3333333333351780E-01     0.0000000000000000E+00 
    0.0000000000000000E+00     1.0000000000027399E-01     0.0000000000000000E+00 
    0.0000000000000000E+00     6.6666666666852920E-02     0.0000000000000000E+00 
    0.0000000000000000E+00     3.3333333333423747E-02     0.0000000000000000E+00 
    1.7000000000000001E-01     3.3333333333267212E-02     0.0000000000000000E+00 
    1.7000000000000001E-01     6.6666666666502158E-02     0.0000000000000000E+00 
    1.7000000000000001E-01     9.9999999999737105E-02     0.0000000000000000E+00 
    1.7000000000000001E-01     1.3333333333315450E-01     0.0000000000000000E+00 
    1.7000000000000001E-01     1.6666666666658000E-01     0.0000000000000000E+00 
    1.7000000000000001E-01     3.3333333333306081E-01     0.0000000000000000E+00 
    1.7000000000000001E-01     4.6666666666598061E-01     0.0000000000000000E+00 
    1.7000000000000001E-01     5.9999999999894360E-01     0.0000000000000000E+00 
    1.7000000000000001E-01     7.3333333333261463E-01     0.0000000000000000E+00 
    1.7000000000000001E-01     8.6666666666630743E-01     0.0000000000000000E+00 
    3.4000000000000002E-01     1.3333333333306890E-01     0.0000000000000000E+00 
    3.4000000000000002E-01     2.6666666666600858E-01     0.0000000000000000E+00 
    3.4000000000000002E-01     3.9999999999894842E-01     0.0000000000000000E+00 
    3.4000000000000002E-01     5.3333333333261779E-01     0.0000000000000000E+00 
    3.4000000000000002E-01     6.6666666666631980E-01     0.0000000000000000E+00 
    3.4000000000000002E-01     8.3333333333322490E-01     0.0000000000000000E+00 
    3.4000000000000002E-01     8.6666666666642811E-01     0.0000000000000000E+00 
    3.4000000000000002E-01     8.9999999999982638E-01     0.0000000000000000E+00 
    3.4000000000000002E-01     9.3333333333322477E-01     0.0000000000000000E+00 
    3.4000000000000002E-01     9.6666666666660150E-01     0.0000000000000000E+00 
    5.0000000000000000E-01     8.3333333333160439E-02     0.0000000000000000E+00 
    5.0000000000000000E-01     1.6666666666625049E-01     0.0000000000000000E+00 
    5.0000000000000000E-01     2.4999999999934600E-01     0.0000000000000000E+00 
    5.0000000000000000E-01     3.3333333333289372E-01     0.0000000000000000E+00 
    5.0000000000000000E-01     4.1666666666644692E-01     0.0000000000000000E+00 
    5.0000000000000000E-01     5.8333333333333337E-01     0.0000000000000000E+00 
    5.0000000000000000E-01     6.6666666666666663E-01     0.0000000000000000E+00 
    5.0000000000000000E-01     7.5000000000000000E-01     0.0000000000000000E+00 
    5.0000000000000000E-01     8.3333333333333326E-01     0.0000000000000000E+00 
    5.0000000000000000E-01     9.1666666666666663E-01     0.0000000000000000E+00 
    6.6000000000000003E-01     3.3333333333267212E-02     0.0000000000000000E+00 
    6.6000000000000003E-01     6.6666666666502158E-02     0.0000000000000000E+00 
    6.6000000000000003E-01     9.9999999999737105E-02     0.0000000000000000E+00 
    6.6000000000000003E-01     1.3333333333315450E-01     0.0000000000000000E+00 
    6.6000000000000003E-01     1.6666666666658000E-01     0.0000000000000000E+00 
    6.6000000000000003E-01     3.3333333333306081E-01     0.0000000000000000E+00 
    6.6000000000000003E-01     4.6666666666598061E-01     0.0000000000000000E+00 
    6.6000000000000003E-01     5.9999999999894360E-01     0.0000000000000000E+00 
    6.6000000000000003E-01     7.3333333333261463E-01     0.0000000000000000E+00 
    6.6000000000000003E-01     8.6666666666630743E-01     0.0000000000000000E+00 
    8.2999999999999996E-01     1.3333333333306890E-01     0.0000000000000000E+00 
    8.2999999999999996E-01     2.6666666666600858E-01     0.0000000000000000E+00 
    8.2999999999999996E-01     3.9999999999894842E-01     0.0000000000000000E+00 
    8.2999999999999996E-01     5.3333333333261779E-01     0.0000000000000000E+00 
    8.2999999999999996E-01     6.6666666666631980E-01     0.0000000000000000E+00 
    8.2999999999999996E-01     8.3333333333322490E-01     0.0000000000000000E+00 
    8.2999999999999996E-01     8.6666666666642811E-01     0.0000000000000000E+00 
    8.2999999999999996E-01     8.9999999999982638E-01     0.0000000000000000E+00 
    8.2999999999999996E-01     9.3333333333322477E-01     0.0000000000000000E+00 
    8.2999999999999996E-01     9.6666666666660150E-01     0.0000000000000000E+00 
    8.4999999999781806E-02     2.0000000000000001E-01     0.0000000000000000E+00 
    2.5499999999977202E-01     4.9999999999919531E-01     0.0000000000000000E+00 
    4.1999999999987758E-01     6.5000000000022951E-01     0.0000000000000000E+00 
    5.7999999999983576E-01     3.5000000000030801E-01     0.0000000000000000E+00 
    7.4499999999976552E-01     4.9999999999917250E-01     0.0000000000000000E+00 
    9.1499999999980464E-01     8.0000000000000004E-01     0.0000000000000000E+00 
    8.4999999999781806E-02     3.3333333333345483E-02     0.0000000000000000E+00 
    8.4999999999781820E-02     6.6666666666677546E-02     0.0000000000000000E+00 
    8.4999999999781806E-02     1.0000000000000550E-01     0.0000000000000000E+00 
    8.4999999999781806E-02     1.3333333333333611E-01     0.0000000000000000E+00 
    8.4999999999781806E-02     1.6666666666666941E-01     0.0000000000000000E+00 
    2.5499999999978118E-01     8.3333333333033915E-02     0.0000000000000000E+00 
    2.5499999999977929E-01     1.6666666666598720E-01     0.0000000000000000E+00 
    2.5499999999977740E-01     2.4999999999894040E-01     0.0000000000000000E+00 
    2.5499999999977557E-01     3.3333333333234971E-01     0.0000000000000000E+00 
    2.5499999999977391E-01     4.1666666666577912E-01     0.0000000000000000E+00 
    4.1999999999978971E-01     1.0833333333315290E-01     0.0000000000000000E+00 
    4.1999999999980731E-01     2.1666666666620610E-01     0.0000000000000000E+00 
    4.1999999999982501E-01     3.2499999999926188E-01     0.0000000000000000E+00 
    4.1999999999984239E-01     4.3333333333290880E-01     0.0000000000000000E+00 
    4.1999999999985999E-01     5.4166666666657448E-01     0.0000000000000000E+00 
    5.7999999999984608E-01     5.8333333333265167E-02     0.0000000000000000E+00 
    5.7999999999984408E-01     1.1666666666647900E-01     0.0000000000000000E+00 
    5.7999999999984186E-01     1.7499999999969559E-01     0.0000000000000000E+00 
    5.7999999999983987E-01     2.3333333333322939E-01     0.0000000000000000E+00 
    5.7999999999983787E-01     2.9166666666677010E-01     0.0000000000000000E+00 
    7.4499999999970790E-01     8.3333333333030127E-02     0.0000000000000000E+00 
    7.4499999999971933E-01     1.6666666666597951E-01     0.0000000000000000E+00 
    7.4499999999973099E-01     2.4999999999892900E-01     0.0000000000000000E+00 
    7.4499999999974242E-01     3.3333333333233439E-01     0.0000000000000000E+00 
    7.4499999999975397E-01     4.1666666666576019E-01     0.0000000000000000E+00 
    9.1499999999980464E-01     1.3333333333306890E-01     0.0000000000000000E+00 
    9.1499999999980464E-01     2.6666666666600858E-01     0.0000000000000000E+00 
    9.1499999999980464E-01     3.9999999999894842E-01     0.0000000000000000E+00 
    9.1499999999980464E-01     5.3333333333261779E-01     0.0000000000000000E+00 
    9.1499999999980464E-01     6.6666666666631980E-01     0.0000000000000000E+00 
    8.4999999999853859E-02     3.3333333333337789E-01     0.0000000000000000E+00 
    8.4999999999925954E-02     4.6666666666669598E-01     0.0000000000000000E+00 
    8.4999999999998022E-02     6.0000000000001441E-01     0.0000000000000000E+00 
    8.5000000000070103E-02     7.3333333333334294E-01     0.0000000000000000E+00 
    8.5000000000142184E-02     8.6666666666667158E-01     0.0000000000000000E+00 
    2.5499999999984352E-01     5.8333333333247239E-01     0.0000000000000000E+00 
    2.5499999999991479E-01     6.6666666666566776E-01     0.0000000000000000E+00 
    2.5499999999998618E-01     7.4999999999898259E-01     0.0000000000000000E+00 
    2.5500000000005768E-01     8.3333333333265114E-01     0.0000000000000000E+00 
    2.5500000000012918E-01     9.1666666666632035E-01     0.0000000000000000E+00 
    4.1999999999993048E-01     7.0833333333347026E-01     0.0000000000000000E+00 
    4.1999999999998350E-01     7.6666666666670036E-01     0.0000000000000000E+00 
    4.2000000000003651E-01     8.2500000000002793E-01     0.0000000000000000E+00 
    4.2000000000008941E-01     8.8333333333335529E-01     0.0000000000000000E+00 
    4.2000000000014232E-01     9.4166666666667220E-01     0.0000000000000000E+00 
    5.7999999999989571E-01     4.5833333333345377E-01     0.0000000000000000E+00 
    5.7999999999995566E-01     5.6666666666652898E-01     0.0000000000000000E+00 
    5.8000000000001539E-01     6.7499999999962579E-01     0.0000000000000000E+00 
    5.8000000000007534E-01     7.8333333333307675E-01     0.0000000000000000E+00 
    5.8000000000013530E-01     8.9166666666653849E-01     0.0000000000000000E+00 
    7.4499999999985511E-01     5.8333333333245319E-01     0.0000000000000000E+00 
    7.4499999999994526E-01     6.6666666666565277E-01     0.0000000000000000E+00 
    7.4500000000003486E-01     7.4999999999897116E-01     0.0000000000000000E+00 
    7.4500000000012456E-01     8.3333333333264370E-01     0.0000000000000000E+00 
    7.4500000000021416E-01     9.1666666666631658E-01     0.0000000000000000E+00 
    9.1499999999988413E-01     8.3333333333322490E-01     0.0000000000000000E+00 
    9.1499999999996384E-01     8.6666666666642811E-01     0.0000000000000000E+00 
    9.1500000000004356E-01     8.9999999999982638E-01     0.0000000000000000E+00 
    9.1500000000012305E-01     9.3333333333322477E-01     0.0000000000000000E+00 
    9.1500000000020254E-01     9.6666666666660150E-01     0.0000000000000000E+00 

CELLS 288 1152 

3 0 21 109 
3 109 52 0 
3 52 109 110 
3 110 51 52 
3 51 110 111 
3 111 50 51 
3 50 111 112 
3 112 49 50 
3 49 112 113 
3 113 48 49 
3 48 113 103 
3 103 11 48 
3 21 12 53 
3 53 109 21 
3 109 53 54 
3 54 110 109 
3 110 54 55 
3 55 111 110 
3 111 55 56 
3 56 112 111 
3 112 56 57 
3 57 113 112 
3 113 57 10 
3 10 103 113 
3 12 22 114 
3 114 53 12 
3 53 114 115 
3 115 54 53 
3 54 115 116 
3 116 55 54 
3 55 116 117 
3 117 56 55 
3 56 117 118 
3 118 57 56 
3 57 118 104 
3 104 10 57 
3 22 15 63 
3 63 114 22 
3 114 63 64 
3 64 115 114 
3 115 64 65 
3 65 116 115 
3 116 65 66 
3 66 117 116 
3 117 66 67 
3 67 118 117 
3 118 67 9 
3 9 104 118 
3 15 23 119 
3 119 63 15 
3 63 119 120 
3 120 64 63 
3 64 120 121 
3 121 65 64 
3 65 121 122 
3 122 66 65 
3 66 122 123 
3 123 67 66 
3 67 123 105 
3 105 9 67 
3 23 4 73 
3 73 119 23 
3 119 73 74 
3 74 120 119 
3 120 74 75 
3 75 121 120 
3 121 75 76 
3 76 122 121 
3 122 76 77 
3 77 123 122 
3 123 77 20 
3 20 105 123 
3 4 24 124 
3 124 73 4 
3 73 124 125 
3 125 74 73 
3 74 125 126 
3 126 75 74 
3 75 126 127 
3 127 76 75 
3 76 127 128 
3 128 77 76 
3 77 128 106 
3 106 20 77 
3 24 16 83 
3 83 124 24 
3 124 83 84 
3 84 125 124 
3 125 84 85 
3 85 126 125 
3 126 85 86 
3 86 127 126 
3 127 86 87 
3 87 128 127 
3 128 87 8 
3 8 106 128 
3 16 25 129 
3 129 83 16 
3 83 129 130 
3 130 84 83 
3 84 130 131 
3 131 85 84 
3 85 131 132 
3 132 86 85 
3 86 132 133 
3 133 87 86 
3 87 133 107 
3 107 8 87 
3 25 19 93 
3 93 129 25 
3 129 93 94 
3 94 130 129 
3 130 94 95 
3 95 131 130 
3 131 95 96 
3 96 132 131 
3 132 96 97 
3 97 133 132 
3 133 97 7 
3 7 107 133 
3 19 26 134 
3 134 93 19 
3 93 134 135 
3 135 94 93 
3 94 135 136 
3 136 95 94 
3 95 136 137 
3 137 96 95 
3 96 137 138 
3 138 97 96 
3 97 138 108 
3 108 7 97 
3 26 1 27 
3 27 134 26 
3 134 27 28 
3 28 135 134 
3 135 28 29 
3 29 136 135 
3 136 29 30 
3 30 137 136 
3 137 30 31 
3 31 138 137 
3 138 31 6 
3 6 108 138 
3 11 103 139 
3 139 47 11 
3 47 139 140 
3 140 46 47 
3 46 140 141 
3 141 45 46 
3 45 141 142 
3 142 44 45 
3 44 142 143 
3 143 43 44 
3 43 143 42 
3 42 3 43 
3 103 10 58 
3 58 139 103 
3 139 58 59 
3 59 140 139 
3 140 59 60 
3 60 141 140 
3 141 60 61 
3 61 142 141 
3 142 61 62 
3 62 143 142 
3 143 62 13 
3 13 42 143 
3 10 104 144 
3 144 58 10 
3 58 144 145 
3 145 59 58 
3 59 145 146 
3 146 60 59 
3 60 146 147 
3 147 61 60 
3 61 147 148 
3 148 62 61 
3 62 148 41 
3 41 13 62 
3 104 9 68 
3 68 144 104 
3 144 68 69 
3 69 145 144 
3 145 69 70 
3 70 146 145 
3 146 70 71 
3 71 147 146 
3 147 71 72 
3 72 148 147 
3 148 72 14 
3 14 41 148 
3 9 105 149 
3 149 68 9 
3 68 149 150 
3 150 69 68 
3 69 150 151 
3 151 70 69 
3 70 151 152 
3 152 71 70 
3 71 152 153 
3 153 72 71 
3 72 153 40 
3 40 14 72 
3 105 20 78 
3 78 149 105 
3 149 78 79 
3 79 150 149 
3 150 79 80 
3 80 151 150 
3 151 80 81 
3 81 152 151 
3 152 81 82 
3 82 153 152 
3 153 82 5 
3 5 40 153 
3 20 106 154 
3 154 78 20 
3 78 154 155 
3 155 79 78 
3 79 155 156 
3 156 80 79 
3 80 156 157 
3 157 81 80 
3 81 157 158 
3 158 82 81 
3 82 158 39 
3 39 5 82 
3 106 8 88 
3 88 154 106 
3 154 88 89 
3 89 155 154 
3 155 89 90 
3 90 156 155 
3 156 90 91 
3 91 157 156 
3 157 91 92 
3 92 158 157 
3 158 92 17 
3 17 39 158 
3 8 107 159 
3 159 88 8 
3 88 159 160 
3 160 89 88 
3 89 160 161 
3 161 90 89 
3 90 161 162 
3 162 91 90 
3 91 162 163 
3 163 92 91 
3 92 163 38 
3 38 17 92 
3 107 7 98 
3 98 159 107 
3 159 98 99 
3 99 160 159 
3 160 99 100 
3 100 161 160 
3 161 100 101 
3 101 162 161 
3 162 101 102 
3 102 163 162 
3 163 102 18 
3 18 38 163 
3 7 108 164 
3 164 98 7 
3 98 164 165 
3 165 99 98 
3 99 165 166 
3 166 100 99 
3 100 166 167 
3 167 101 100 
3 101 167 168 
3 168 102 101 
3 102 168 37 
3 37 18 102 
3 108 6 32 
3 32 164 108 
3 164 32 33 
3 33 165 164 
3 165 33 34 
3 34 166 165 
3 166 34 35 
3 35 167 166 
3 167 35 36 
3 36 168 167 
3 168 36 2 
3 2 37 168 

CELL_TYPES 288 

5 
5 
5 
5 
5 
5 
5 
5 
5 
5 
5 
5 
5 
5 
5 
5 
5 
5 
5 
5 
5 
5 
5 
5 
5 
5 
5 
5 
5 
5 
5 
5 
5 
5 
5 
5 
5 
5 
5 
5 
5 
5 
5 
5 
5 
5 
5 
5 
5 
5 
5 
5 
5 
5 
5 
5 
5 
5 
5 
5 
5 
5 
5 
5 
5 
5 
5 
5 
5 
5 
5 
5 
5 
5 
5 
5 
5 
5 
5 
5 
5 
5 
5 
5 
5 
5 
5 
5 
5 
5 
5 
5 
5 
5 
5 
5 
5 
5 
5 
5 
5 
5 
5 
5 
5 
5 
5 
5 
5 
5 
5 
5 
5 
5 
5 
5 
5 
5 
5 
5 
5 
5 
5 
5 
5 
5 
5 
5 
5 
5 
5 
5 
5 
5 
5 
5 
5 
5 
5 
5 
5 
5 
5 
5 
5 
5 
5 
5 
5 
5 
5 
5 
5 
5 
5 
5 
5 
5 
5 
5 
5 
5 
5 
5 
5 
5 
5 
5 
5 
5 
5 
5 
5 
5 
5 
5 
5 
5 
5 
5 
5 
5 
5 
5 
5 
5 
5 
5 
5 
5 
5 
5 
5 
5 
5 
5 
5 
5 
5 
5 
5 
5 
5 
5 
5 
5 
5 
5 
5 
5 
5 
5 
5 
5 
5 
5 
5 
5 
5 
5 
5 
5 
5 
5 
5 
5 
5 
5 
5 
5 
5 
5 
5 
5 
5 
5 
5 
5 
5 
5 
5 
5 
5 
5 
5 
5 
5 
5 
5 
5 
5 
5 
5 
5 
5 
5 
5 
5 
5 
5 
5 
5 
5 
5 
5 
5 
5 
5 
5 
5 
5 
5 
5 
5 
5 
5 
5 
5 
5 
5 
5 
5 
5 
5 
5 
5 
5 
5 

CELL_DATA 288 
SCALARS Pressure float 1 
LOOKUP_TABLE default 

    4.3421579366836336E-03 
    7.1540966179093812E-03 
    2.7272858105715322E-02 
    1.8608040630005828E-02 
    5.0071076148494292E-02 
    2.9928791604506299E-02 
    7.2442382248129711E-02 
    4.0887336620150344E-02 
    9.3713016219877002E-02 
    5.1143699363239425E-02 
    1.1318998554857956E-01 
    6.0677516412033360E-02 
    1.5474850502969890E-02 
    2.9895303436265040E-02 
    7.1592205151169888E-02 
    7.4277515318513371E-02 
    1.2699635759289765E-01 
    1.1919423874014072E-01 
    1.8197446406735537E-01 
    1.6359531095108903E-01 
    2.3470717888513032E-01 
    2.0492802750796371E-01 
    2.8214237392794794E-01 
    2.3877008476449843E-01 
    6.0651198283964189E-02 
    8.1270356722730280E-02 
    2.0832753532440496E-01 
    1.8486705088742539E-01 
    3.4278598403881527E-01 
    2.8137878232986846E-01 
    4.5533402027360204E-01 
    3.6671367039875458E-01 
    5.4262325429924096E-01 
    4.3964465069034631E-01 
    6.0474744382113832E-01 
    4.9812928094209841E-01 
    1.1615380792183945E-01 
    1.7858537142340222E-01 
    4.0706661634692332E-01 
    4.0896293674579509E-01 
    6.2642507630215671E-01 
    5.8080673025210128E-01 
    7.4915371673678288E-01 
    6.8317662248191258E-01 
    7.7755445890014685E-01 
    7.2150036386847682E-01 
    7.2276163928925907E-01 
    7.1145254469757302E-01 
    1.0526380576248487E-01 
    2.2841729413395379E-01 
    4.3277053455510922E-01 
    5.4608440914540546E-01 
    6.9402883218698763E-01 
    7.6572844734085577E-01 
    8.5615988389632514E-01 
    8.6643906864437326E-01 
    9.0975504934394735E-01 
    8.5534610423005164E-01 
    8.6271754832550007E-01 
    7.4002357058805746E-01 
    8.4522286164813831E-02 
    1.9409095254550965E-01 
    3.6009727567054328E-01 
    4.7997346263016788E-01 
    6.0413318596512877E-01 
    7.1503399500702758E-01 
    7.9590883363200238E-01 
    8.7590045753503498E-01 
    9.1904844295742383E-01 
    9.5125284987218717E-01 
    9.6761736705246726E-01 
    9.4441147728480490E-01 
    5.8229805877236362E-02 
    1.4400825913474188E-01 
    2.5779693812065319E-01 
    3.6723485679208323E-01 
    4.4750305020608222E-01 
    5.7006205807465760E-01 
    6.1769297523082434E-01 
    7.4153046855199767E-01 
    7.6095559872433427E-01 
    8.6948245149889558E-01 
    8.6985921786308906E-01 
    9.4249697982581682E-01 
    3.0561229891839969E-02 
    8.6455596161794976E-02 
    1.4325813749668931E-01 
    2.2886517239642556E-01 
    2.5495818337117820E-01 
    3.6742618538907929E-01 
    3.6298604296550441E-01 
    5.0172199034870768E-01 
    4.6748388053792428E-01 
    6.0894279127295448E-01 
    5.5039443506138885E-01 
    7.3294004903132048E-01 
    6.3481636724276425E-02 
    9.2097767582070944E-02 
    2.0866528868894926E-01 
    2.0819512752352334E-01 
    3.4166255994095723E-01 
    3.1563254921170003E-01 
    4.5453834288124945E-01 
    4.1149475284125459E-01 
    5.5168403405428135E-01 
    4.9935721158143598E-01 
    6.2144358794349441E-01 
    5.7254798034115562E-01 
    7.8247533018307946E-02 
    1.3973454191898185E-01 
    2.6133981015940816E-01 
    3.0743833671227389E-01 
    4.0352622214286987E-01 
    4.3991585244320741E-01 
    4.9923717043079197E-01 
    5.3577920373900856E-01 
    5.4691913231640998E-01 
    5.9499569183347611E-01 
    5.4458300453431741E-01 
    6.2017907906742686E-01 
    4.9121193239526899E-02 
    1.1747820463624772E-01 
    1.7338001126190936E-01 
    2.5446970221666043E-01 
    2.6461362446990133E-01 
    3.5089650089161795E-01 
    3.1881030810068772E-01 
    4.0190314878303124E-01 
    3.3395050844801721E-01 
    4.0558250845362043E-01 
    3.0134621676855999E-01 
    3.4628749661471303E-01 
    1.6427549262703105E-02 
    5.5043054195702198E-02 
    5.1172084945527212E-02 
    1.0832677036892611E-01 
    7.3560709551845724E-02 
    1.4901044386620266E-01 
    8.6007436828514541E-02 
    1.6942504499705227E-01 
    8.7095848391564298E-02 
    1.6814588243680348E-01 
    7.5241027907836946E-02 
    1.4158358871632809E-01 
    1.4215660977796257E-01 
    7.3097722093723352E-02 
    1.7112496023068266E-01 
    8.5334715210571302E-02 
    1.7153425274733841E-01 
    8.3778967035407631E-02 
    1.4734167425746844E-01 
    7.0450378793304999E-02 
    1.0372889187882016E-01 
    4.7710541801571131E-02 
    4.2521634807187805E-02 
    1.7148673748756928E-02 
    3.4926210761940196E-01 
    3.0588276113910157E-01 
    4.1950450361808383E-01 
    3.4454490655299530E-01 
    4.1779976795763685E-01 
    3.2774334970900354E-01 
    3.5876449997889981E-01 
    2.6669996487625630E-01 
    2.5532360315744890E-01 
    1.7104502333449728E-01 
    1.1952719376579456E-01 
    4.6140391602275066E-02 
    6.3571352682332583E-01 
    5.5616896415152728E-01 
    6.1783129083226573E-01 
    5.6730885380833451E-01 
    5.5177363956915448E-01 
    5.1395694096370081E-01 
    4.4710092319642442E-01 
    4.0943830492281352E-01 
    3.0990662002801594E-01 
    2.6315684823146851E-01 
    1.4426260294062668E-01 
    8.0050871403789345E-02 
    6.1632786155896102E-01 
    6.6974599779884036E-01 
    5.2177468411098682E-01 
    5.7592852852091159E-01 
    4.2595367464264444E-01 
    4.6846895617369072E-01 
    3.2489403635615333E-01 
    3.4969254492885471E-01 
    2.1487170598962371E-01 
    2.1486613179690311E-01 
    9.6373057891302488E-02 
    6.6650213442222828E-02 
    7.5087519240003997E-01 
    6.1229006854380152E-01 
    6.6928746986600662E-01 
    4.9472279951691417E-01 
    5.2634324657225595E-01 
    3.7946179991116352E-01 
    3.8237621912575498E-01 
    2.6686908061570658E-01 
    2.3926038210501574E-01 
    1.5090308355086987E-01 
    9.2175229617359286E-02 
    3.3401232693728335E-02 
    9.4793659238668782E-01 
    8.7854822185530790E-01 
    8.7954394918250589E-01 
    7.8547433749157292E-01 
    7.6182508088595979E-01 
    6.4288639341062304E-01 
    5.9038892998006653E-01 
    4.6401529841159989E-01 
    3.8104995852306295E-01 
    2.6840560594714635E-01 
    1.5258082374311327E-01 
    6.2978484897122239E-02 
    9.3721022684049415E-01 
    9.6653607304472799E-01 
    9.5021542099178036E-01 
    9.2348863395460856E-01 
    8.8213467341492358E-01 
    8.0872055030264522E-01 
    7.2838235702488408E-01 
    6.1975635867631274E-01 
    4.9414053111069811E-01 
    3.7218848039737823E-01 
    2.0490678985566937E-01 
    9.0852613834061263E-02 
    7.0785151925264289E-01 
    8.4665718358622000E-01 
    8.4111249302453672E-01 
    9.0307206545733654E-01 
    8.6179781713549664E-01 
    8.5841308512892445E-01 
    7.7033898184704008E-01 
    7.0398121295270466E-01 
    5.5757833114434019E-01 
    4.4427854194868766E-01 
    2.3973528619562356E-01 
    1.1232980424251736E-01 
    7.1374424287114080E-01 
    7.0547967668378719E-01 
    7.2168040273149303E-01 
    7.7567533086344986E-01 
    6.8749366733185180E-01 
    7.5302772060789147E-01 
    5.8786104375880921E-01 
    6.3403885575575902E-01 
    4.1728808882219409E-01 
    4.1626135713356199E-01 
    1.8499256262099581E-01 
    1.2268284787699350E-01 
    4.9812574903183937E-01 
    6.0511677449227208E-01 
    4.4195527384041067E-01 
    5.4495651828316505E-01 
    3.6996245788205273E-01 
    4.5926024749438121E-01 
    2.8457378260104915E-01 
    3.4719813706158242E-01 
    1.8731804150458797E-01 
    2.1193037927391403E-01 
    8.2678565792932548E-02 
    6.3108771138379385E-02 
    2.3866697375001059E-01 
    2.8322910550435182E-01 
    2.0588790825967773E-01 
    2.3633711905457494E-01 
    1.6457421351962190E-01 
    1.8360820742240808E-01 
    1.1992990961595126E-01 
    1.2818107689034494E-01 
    7.4650972495683574E-02 
    7.2232741911387871E-02 
    3.0072610953920151E-02 
    1.5933502311688458E-02 
    6.1126182923102700E-02 
    1.1392596417133287E-01 
    5.1720621178606617E-02 
    9.4585068486430043E-02 
    4.1421338739340813E-02 
    7.3192823703328760E-02 
    3.0326964979788724E-02 
    5.0583934170451220E-02 
    1.8843721833379085E-02 
    2.7543086056101909E-02 
    7.2606533213095707E-03 
    4.4820082274171320E-03 

