# vtk DataFile Version 2.0
Pressure Field Data 
ASCII 
DATASET UNSTRUCTURED_GRID 

POINTS 1089 float 

    0.0000000000000000E+00     0.0000000000000000E+00     0.0000000000000000E+00 
    1.0000000000000000E+00     0.0000000000000000E+00     0.0000000000000000E+00 
    1.0000000000000000E+00     1.0000000000000000E+00     0.0000000000000000E+00 
    0.0000000000000000E+00     1.0000000000000000E+00     0.0000000000000000E+00 
    3.1249999999941821E-02     0.0000000000000000E+00     0.0000000000000000E+00 
    6.2499999999872928E-02     0.0000000000000000E+00     0.0000000000000000E+00 
    9.3749999999823030E-02     0.0000000000000000E+00     0.0000000000000000E+00 
    1.2499999999977310E-01     0.0000000000000000E+00     0.0000000000000000E+00 
    1.5624999999968331E-01     0.0000000000000000E+00     0.0000000000000000E+00 
    1.8749999999959341E-01     0.0000000000000000E+00     0.0000000000000000E+00 
    2.1874999999950220E-01     0.0000000000000000E+00     0.0000000000000000E+00 
    2.4999999999941089E-01     0.0000000000000000E+00     0.0000000000000000E+00 
    2.8124999999931971E-01     0.0000000000000000E+00     0.0000000000000000E+00 
    3.1249999999922851E-01     0.0000000000000000E+00     0.0000000000000000E+00 
    3.4374999999913730E-01     0.0000000000000000E+00     0.0000000000000000E+00 
    3.7499999999904610E-01     0.0000000000000000E+00     0.0000000000000000E+00 
    4.0624999999895478E-01     0.0000000000000000E+00     0.0000000000000000E+00 
    4.3749999999886358E-01     0.0000000000000000E+00     0.0000000000000000E+00 
    4.6874999999877792E-01     0.0000000000000000E+00     0.0000000000000000E+00 
    4.9999999999869210E-01     0.0000000000000000E+00     0.0000000000000000E+00 
    5.3124999999876910E-01     0.0000000000000000E+00     0.0000000000000000E+00 
    5.6249999999884603E-01     0.0000000000000000E+00     0.0000000000000000E+00 
    5.9374999999892841E-01     0.0000000000000000E+00     0.0000000000000000E+00 
    6.2499999999901090E-01     0.0000000000000000E+00     0.0000000000000000E+00 
    6.5624999999909328E-01     0.0000000000000000E+00     0.0000000000000000E+00 
    6.8749999999917577E-01     0.0000000000000000E+00     0.0000000000000000E+00 
    7.1874999999925815E-01     0.0000000000000000E+00     0.0000000000000000E+00 
    7.4999999999934064E-01     0.0000000000000000E+00     0.0000000000000000E+00 
    7.8124999999942302E-01     0.0000000000000000E+00     0.0000000000000000E+00 
    8.1249999999950551E-01     0.0000000000000000E+00     0.0000000000000000E+00 
    8.4374999999958789E-01     0.0000000000000000E+00     0.0000000000000000E+00 
    8.7499999999967026E-01     0.0000000000000000E+00     0.0000000000000000E+00 
    9.0624999999975264E-01     0.0000000000000000E+00     0.0000000000000000E+00 
    9.3749999999983513E-01     0.0000000000000000E+00     0.0000000000000000E+00 
    9.6874999999991751E-01     0.0000000000000000E+00     0.0000000000000000E+00 
    1.0000000000000000E+00     3.1249999999941821E-02     0.0000000000000000E+00 
    1.0000000000000000E+00     6.2499999999872928E-02     0.0000000000000000E+00 
    1.0000000000000000E+00     9.3749999999823030E-02     0.0000000000000000E+00 
    1.0000000000000000E+00     1.2499999999977310E-01     0.0000000000000000E+00 
    1.0000000000000000E+00     1.5624999999968331E-01     0.0000000000000000E+00 
    1.0000000000000000E+00     1.8749999999959341E-01     0.0000000000000000E+00 
    1.0000000000000000E+00     2.1874999999950220E-01     0.0000000000000000E+00 
    1.0000000000000000E+00     2.4999999999941089E-01     0.0000000000000000E+00 
    1.0000000000000000E+00     2.8124999999931971E-01     0.0000000000000000E+00 
    1.0000000000000000E+00     3.1249999999922851E-01     0.0000000000000000E+00 
    1.0000000000000000E+00     3.4374999999913730E-01     0.0000000000000000E+00 
    1.0000000000000000E+00     3.7499999999904610E-01     0.0000000000000000E+00 
    1.0000000000000000E+00     4.0624999999895478E-01     0.0000000000000000E+00 
    1.0000000000000000E+00     4.3749999999886358E-01     0.0000000000000000E+00 
    1.0000000000000000E+00     4.6874999999877792E-01     0.0000000000000000E+00 
    1.0000000000000000E+00     4.9999999999869210E-01     0.0000000000000000E+00 
    1.0000000000000000E+00     5.3124999999876910E-01     0.0000000000000000E+00 
    1.0000000000000000E+00     5.6249999999884603E-01     0.0000000000000000E+00 
    1.0000000000000000E+00     5.9374999999892841E-01     0.0000000000000000E+00 
    1.0000000000000000E+00     6.2499999999901090E-01     0.0000000000000000E+00 
    1.0000000000000000E+00     6.5624999999909328E-01     0.0000000000000000E+00 
    1.0000000000000000E+00     6.8749999999917577E-01     0.0000000000000000E+00 
    1.0000000000000000E+00     7.1874999999925815E-01     0.0000000000000000E+00 
    1.0000000000000000E+00     7.4999999999934064E-01     0.0000000000000000E+00 
    1.0000000000000000E+00     7.8124999999942302E-01     0.0000000000000000E+00 
    1.0000000000000000E+00     8.1249999999950551E-01     0.0000000000000000E+00 
    1.0000000000000000E+00     8.4374999999958789E-01     0.0000000000000000E+00 
    1.0000000000000000E+00     8.7499999999967026E-01     0.0000000000000000E+00 
    1.0000000000000000E+00     9.0624999999975264E-01     0.0000000000000000E+00 
    1.0000000000000000E+00     9.3749999999983513E-01     0.0000000000000000E+00 
    1.0000000000000000E+00     9.6874999999991751E-01     0.0000000000000000E+00 
    9.6874999999986700E-01     1.0000000000000000E+00     0.0000000000000000E+00 
    9.3749999999973976E-01     1.0000000000000000E+00     0.0000000000000000E+00 
    9.0624999999967670E-01     1.0000000000000000E+00     0.0000000000000000E+00 
    8.7499999999950118E-01     1.0000000000000000E+00     0.0000000000000000E+00 
    8.4374999999971556E-01     1.0000000000000000E+00     0.0000000000000000E+00 
    8.1249999999991318E-01     1.0000000000000000E+00     0.0000000000000000E+00 
    7.8125000000010270E-01     1.0000000000000000E+00     0.0000000000000000E+00 
    7.5000000000034706E-01     1.0000000000000000E+00     0.0000000000000000E+00 
    7.1875000000056688E-01     1.0000000000000000E+00     0.0000000000000000E+00 
    6.8750000000078049E-01     1.0000000000000000E+00     0.0000000000000000E+00 
    6.5625000000097422E-01     1.0000000000000000E+00     0.0000000000000000E+00 
    6.2500000000121403E-01     1.0000000000000000E+00     0.0000000000000000E+00 
    5.9375000000151579E-01     1.0000000000000000E+00     0.0000000000000000E+00 
    5.6250000000164757E-01     1.0000000000000000E+00     0.0000000000000000E+00 
    5.3125000000182365E-01     1.0000000000000000E+00     0.0000000000000000E+00 
    5.0000000000205946E-01     1.0000000000000000E+00     0.0000000000000000E+00 
    4.6875000000194023E-01     1.0000000000000000E+00     0.0000000000000000E+00 
    4.3750000000182099E-01     1.0000000000000000E+00     0.0000000000000000E+00 
    4.0625000000169093E-01     1.0000000000000000E+00     0.0000000000000000E+00 
    3.7500000000156092E-01     1.0000000000000000E+00     0.0000000000000000E+00 
    3.4375000000143069E-01     1.0000000000000000E+00     0.0000000000000000E+00 
    3.1250000000130068E-01     1.0000000000000000E+00     0.0000000000000000E+00 
    2.8125000000117062E-01     1.0000000000000000E+00     0.0000000000000000E+00 
    2.5000000000104050E-01     1.0000000000000000E+00     0.0000000000000000E+00 
    2.1875000000091041E-01     1.0000000000000000E+00     0.0000000000000000E+00 
    1.8750000000078040E-01     1.0000000000000000E+00     0.0000000000000000E+00 
    1.5625000000065031E-01     1.0000000000000000E+00     0.0000000000000000E+00 
    1.2500000000052031E-01     1.0000000000000000E+00     0.0000000000000000E+00 
    9.3750000000390132E-02     1.0000000000000000E+00     0.0000000000000000E+00 
    6.2500000000260125E-02     1.0000000000000000E+00     0.0000000000000000E+00 
    3.1250000000130007E-02     1.0000000000000000E+00     0.0000000000000000E+00 
    0.0000000000000000E+00     9.6874999999986700E-01     0.0000000000000000E+00 
    0.0000000000000000E+00     9.3749999999973976E-01     0.0000000000000000E+00 
    0.0000000000000000E+00     9.0624999999967670E-01     0.0000000000000000E+00 
    0.0000000000000000E+00     8.7499999999950118E-01     0.0000000000000000E+00 
    0.0000000000000000E+00     8.4374999999971556E-01     0.0000000000000000E+00 
    0.0000000000000000E+00     8.1249999999991318E-01     0.0000000000000000E+00 
    0.0000000000000000E+00     7.8125000000010270E-01     0.0000000000000000E+00 
    0.0000000000000000E+00     7.5000000000034706E-01     0.0000000000000000E+00 
    0.0000000000000000E+00     7.1875000000056688E-01     0.0000000000000000E+00 
    0.0000000000000000E+00     6.8750000000078049E-01     0.0000000000000000E+00 
    0.0000000000000000E+00     6.5625000000097422E-01     0.0000000000000000E+00 
    0.0000000000000000E+00     6.2500000000121403E-01     0.0000000000000000E+00 
    0.0000000000000000E+00     5.9375000000151579E-01     0.0000000000000000E+00 
    0.0000000000000000E+00     5.6250000000164757E-01     0.0000000000000000E+00 
    0.0000000000000000E+00     5.3125000000182365E-01     0.0000000000000000E+00 
    0.0000000000000000E+00     5.0000000000205946E-01     0.0000000000000000E+00 
    0.0000000000000000E+00     4.6875000000194023E-01     0.0000000000000000E+00 
    0.0000000000000000E+00     4.3750000000182099E-01     0.0000000000000000E+00 
    0.0000000000000000E+00     4.0625000000169093E-01     0.0000000000000000E+00 
    0.0000000000000000E+00     3.7500000000156092E-01     0.0000000000000000E+00 
    0.0000000000000000E+00     3.4375000000143069E-01     0.0000000000000000E+00 
    0.0000000000000000E+00     3.1250000000130068E-01     0.0000000000000000E+00 
    0.0000000000000000E+00     2.8125000000117062E-01     0.0000000000000000E+00 
[...]
CELL_DATA 1024 
SCALARS Pressure float 1 
LOOKUP_TABLE default 

    6.4822185061519821E+00 
    6.4813050738897200E+00 
    6.4477100612857408E+00 
    6.4500586853219639E+00 
    6.4231619337764299E+00 
    6.4211841083072132E+00 
    6.3949485751439061E+00 
    6.3938391361627547E+00 
    6.3591580005442871E+00 
    6.3613363119978628E+00 
    6.3289367656003641E+00 
    6.3288266406119567E+00 
    6.2982830219822539E+00 
    6.2961459722428579E+00 
    6.2619362032183181E+00 
    6.2646370366226112E+00 
    6.2356821668310198E+00 
    6.2350631725486032E+00 
    6.2075398535093171E+00 
    6.2056202189425607E+00 
    6.1745796913761861E+00 
    6.1773913716058484E+00 
    6.1447662209098883E+00 
    6.1428076036020691E+00 
    6.1073574471693171E+00 
    6.1067746867138224E+00 
    6.0776137544177899E+00 
    6.0781219305759784E+00 
    6.0511372736698226E+00 
    6.0501536433547036E+00 
    6.0159029065743557E+00 
    6.0176667896604004E+00 
    5.8523336070621204E+00 
    5.8415996059756345E+00 
    5.4910878794149536E+00 
    5.5235175125723046E+00 
    5.2136123678605895E+00 
    5.1900790815956181E+00 
    4.8743190475415830E+00 
    4.8970226298700359E+00 
    4.5814706948490098E+00 
    4.5403970137159524E+00 
    4.2637659082162349E+00 
    4.2826555824857468E+00 
    3.9407659796778995E+00 
    3.9543789353792516E+00 
    3.6381833784939879E+00 
    3.6182424061711291E+00 
    3.3355062260643891E+00 
    3.3414305832942928E+00 
    3.0025224738781073E+00 
    3.0260004089080592E+00 
    2.7031154631016960E+00 
    2.7024423119589027E+00 
    2.4326686520954706E+00 
    2.4054150316388903E+00 
    2.0985603750615631E+00 
    2.1114864278347056E+00 
    1.7873687032323566E+00 
    1.7985487029801508E+00 
    1.4688037676944994E+00 
    1.4610749972146841E+00 
    1.1529729141058560E+00 
    1.1427662067554749E+00 
    6.4818839620653854E+00 
    6.4847845349457964E+00 
    6.4541946683062479E+00 
    6.4489997156091290E+00 
    6.4179557201809425E+00 
    6.4201535997735295E+00 
    6.3892101281838354E+00 
    6.3906904295932296E+00 
    6.3642756554627633E+00 
    6.3612158635967111E+00 
    6.3320419147217208E+00 
    6.3311477198679516E+00 
    6.2978895169267881E+00 
    6.3002607244052449E+00 
    6.2649109678791550E+00 
    6.2648496539658707E+00 
    6.2337583644821963E+00 
    6.2350954761001569E+00 
    6.2050194493529141E+00 
    6.2066298774784219E+00 
    6.1772911065468898E+00 
    6.1727927163497132E+00 
    6.1432825267548381E+00 
    6.1449480756179211E+00 
    6.1096872820868287E+00 
    6.1107024265349423E+00 
    6.0787179509235036E+00 
    6.0777720232278698E+00 
    6.0443745253906620E+00 
    6.0457043972638473E+00 
    6.0133321328468812E+00 
    6.0120786377811628E+00 
    5.8237950408483297E+00 
    5.8390693563588174E+00 
    5.5426545699668575E+00 
    5.4877452857150635E+00 
    5.1739113906662855E+00 
    5.2256960440113378E+00 
    4.8760085990424376E+00 
    4.8559702197960952E+00 
    4.5235538013558454E+00 
    4.5727688162445670E+00 
    4.2940124006386373E+00 
    4.2331498441078228E+00 
    3.9935074867252718E+00 
    4.0182282746512801E+00 
    3.6785100179496268E+00 
    3.6803288178277773E+00 
    3.3223093709566625E+00 
    3.2983105718145804E+00 
    3.0375615684099690E+00 
    3.0122955528998681E+00 
    2.7562414387860770E+00 
    2.7882534466345241E+00 
    2.4227597500084777E+00 
    2.4390209132471341E+00 
    2.1121829053248469E+00 
    2.1036272706640453E+00 
    1.8116819354100784E+00 
    1.8023754465226975E+00 
    1.4571696354189196E+00 
    1.4376717446513467E+00 
    1.1204366836128692E+00 
    1.1517849899747645E+00 
    6.4841185692019359E+00 
    6.4821828256595522E+00 
    6.4537131359144713E+00 
    6.4546950035398609E+00 
    6.4228890332095103E+00 
    6.4239378219874030E+00 
    6.3871281667720323E+00 
    6.3890176271844838E+00 
    6.3572738035798189E+00 
    6.3577057265165910E+00 
    6.3278772104157870E+00 
    6.3284882970359568E+00 
    6.2986362927145416E+00 
    6.2994019970020494E+00 
    6.2684096365311328E+00 
    6.2651658430032091E+00 
    6.2372923160895155E+00 
    6.2356153154460889E+00 
    6.2073255057154775E+00 
    6.2065838951714767E+00 
    6.1718748154466496E+00 
    6.1763233497224768E+00 
    6.1405927689525699E+00 
    6.1397971591709624E+00 
    6.1101556919643905E+00 
    6.1085701373524044E+00 
    6.0781887465999178E+00 
    6.0790050673806766E+00 
    6.0450370830002900E+00 
    6.0465022705260028E+00 
    6.0170042733104410E+00 
    6.0145247127192336E+00 
    5.8643293714422500E+00 
    5.8769853728230146E+00 
    5.5494407051098671E+00 
    5.5600587338410907E+00 
    5.2429595656000778E+00 
    5.2007642680753126E+00 
    4.9391177625827218E+00 
    4.9255819006147217E+00 
    4.6234476892036671E+00 
    4.6411889033741147E+00 
    4.2949607894195099E+00 
    4.3303204508140674E+00 
    4.0013160639709042E+00 
    3.9543152112505844E+00 
    3.6375304032302447E+00 
    3.6622502167674345E+00 
    3.3164349454193065E+00 
    3.3168337822469818E+00 
    3.0022673467880843E+00 
    3.0401473316270371E+00 
    2.7762704943413095E+00 
    2.7089224545174559E+00 
    2.4153608149326224E+00 
    2.4456183555151760E+00 
    2.1059604629094739E+00 
    2.0815016177886747E+00 
    1.7426113761546205E+00 
    1.7736671231739436E+00 
    1.4323345562856922E+00 
    1.4313641425015557E+00 
    1.1305865543674276E+00 
    1.1254090368271417E+00 
    6.4850686588002731E+00 
    6.4871575818063620E+00 
    6.4528240828454857E+00 
    6.4543513262639314E+00 
    6.4211921920333834E+00 
    6.4160229652225889E+00 
    6.3877491917276812E+00 
    6.3898165310352741E+00 
    6.3606790662816088E+00 
    6.3584741153782822E+00 
    6.3245773868641892E+00 
    6.3269165252844681E+00 
    6.2948465842989725E+00 
    6.2940963960571139E+00 
    6.2652520074468958E+00 
    6.2647507393065416E+00 
    6.2328927074575615E+00 
    6.2332382758103400E+00 
    6.2004698615024614E+00 
    6.2029156616963963E+00 
    6.1737199368754458E+00 
    6.1713036599941606E+00 
    6.1379259807719651E+00 
    6.1393245178819384E+00 
    6.1046131483274806E+00 
    6.1053184271942493E+00 
    6.0771437241203170E+00 
    6.0770286975776759E+00 
    6.0474285038469571E+00 
    6.0454061744693322E+00 
    6.0150753606527969E+00 
    6.0153367988747686E+00 
    5.8761616565392876E+00 
    5.8746836177331820E+00 
    5.5461950076523516E+00 
    5.5468536800274828E+00 
    5.1708049467462889E+00 
    5.1791477355779092E+00 
    4.8440659171288205E+00 
    4.8741848294955101E+00 
    4.6158286387189928E+00 
    4.5722458568239741E+00 
    4.3212988260907377E+00 
    4.3146064572323812E+00 
    3.9590285007560349E+00 
    3.9820220307343925E+00 
    3.6689691685038497E+00 
    3.6440624300342099E+00 
    3.3259041258378677E+00 
    3.3751993329160106E+00 
    3.0580528883390725E+00 
    3.0067653020560474E+00 
    2.7020985053419135E+00 
    2.7439911063439446E+00 
    2.4408887572591826E+00 
    2.4107834083550230E+00 
    2.0947064631450303E+00 
    2.1122120847870534E+00 
    1.7568581399870560E+00 
    1.7293707007072250E+00 
    1.4163573308827875E+00 
    1.4453142509839818E+00 
    1.1484873109457325E+00 
    1.1342633600672034E+00 
    6.4868091898608817E+00 
    6.4854212663888191E+00 
    6.4548307185712863E+00 
    6.4541915751742529E+00 
    6.4176261171583766E+00 
    6.4203977162929018E+00 
    6.3910989904037780E+00 
    6.3861150030263740E+00 
    6.3563448485127036E+00 
    6.3626479189851333E+00 
    6.3259976490591692E+00 
    6.3246349492622720E+00 
    6.2976874601207617E+00 
    6.2950480171473853E+00 
    6.2679674582764431E+00 
    6.2683425998635034E+00 
    6.2334648955057244E+00 
    6.2372353769455335E+00 
    6.2023411599927991E+00 
    6.2006626610567208E+00 
    6.1708138925366836E+00 
    6.1681127133964582E+00 
    6.1374798050335801E+00 
    6.1384015211140790E+00 
    6.1087588091243044E+00 
    6.1071283237001621E+00 
    6.0748025655450286E+00 
    6.0775560923215108E+00 
    6.0443845546590982E+00 
    6.0429738654440088E+00 
    6.0144468514177891E+00 
    6.0159853656592404E+00 
    5.8483773582080092E+00 
    5.8248233939208749E+00 
    5.5227216577227924E+00 
    5.5502789191920101E+00 
    5.2213593230454274E+00 
    5.2080471208159542E+00 
    4.9091205733514878E+00 
    4.8856080146399901E+00 
    4.5631591373993423E+00 
    4.5786382947609985E+00 
    4.2336271636793246E+00 
    4.2730835930768531E+00 
    3.9659968592213071E+00 
    3.9637687412262608E+00 
    3.6870855770447779E+00 
    3.6728431836247823E+00 
    3.4080800391669097E+00 
    3.3813637048762129E+00 
    3.0456172543267801E+00 
    3.0787560902078051E+00 
    2.7215911066081908E+00 
    2.6835392353074852E+00 
    2.3613922379516197E+00 
    2.3872081563534984E+00 
    2.0601716993693380E+00 
    2.0895581309102695E+00 
    1.7811156656456326E+00 
    1.7570815404974969E+00 
    1.4623611640453174E+00 
    1.4570708133671921E+00 
    1.1461293054681292E+00 
    1.1462371894772314E+00 
    6.4855644017084249E+00 
    6.4864206828557549E+00 
    6.4535129407465712E+00 
    6.4538747237025014E+00 
    6.4209099491483421E+00 
    6.4188258505868498E+00 
    6.3918379072010598E+00 
    6.3929759232152383E+00 
    6.3630510745803459E+00 
    6.3632868257982578E+00 
    6.3261248455667776E+00 
    6.3254124526928690E+00 
    6.2944500399913679E+00 
    6.2955534140301586E+00 
    6.2703651296869651E+00 
    6.2681133185927802E+00 
    6.2396338401251974E+00 
    6.2377013751680410E+00 
    6.2022146135888780E+00 
    6.2034139793167737E+00 
    6.1685918528237318E+00 
    6.1724026341276144E+00 
    6.1434059678995991E+00 
    6.1409701512211159E+00 
    6.1090693491210786E+00 
    6.1096246096262083E+00 
    6.0785468107053120E+00 
    6.0775385766475729E+00 
    6.0446884491727504E+00 
    6.0468937247631391E+00 
    6.0147009015604365E+00 
    6.0136598312819096E+00 
    5.8330874693754726E+00 
    5.8563722798936704E+00 
    5.5635003820458557E+00 
    5.5263260003372299E+00 
    5.2296045700381901E+00 
    5.2693885006272891E+00 
    4.9179057204266377E+00 
    4.9291186718320246E+00 
    4.6113650903416650E+00 
    4.5916150509307698E+00 
    4.2829017841713428E+00 
    4.2602998812146797E+00 
    3.9688364876060103E+00 
    3.9740155764691769E+00 
    3.6735698225274813E+00 
    3.6950138768683196E+00 
    3.3377497843513293E+00 
    3.3116184216733533E+00 
    3.0183513318871178E+00 
    2.9924666914406757E+00 
    2.7051523671412667E+00 
    2.7714805036682453E+00 
    2.4766235761680129E+00 
    2.4270863301753529E+00 
    2.1440190276403364E+00 
    2.1222101735738388E+00 
    1.7758717190837032E+00 
    1.7884393513874386E+00 
    1.4517260220131547E+00 
    1.4547117793912179E+00 
    1.1426879499216600E+00 
    1.1627900152564798E+00 
    6.4851248410388731E+00 
    6.4813376147626744E+00 
    6.4532774814372607E+00 
    6.4542509837299935E+00 
    6.4194163212715987E+00 
    6.4250038083144778E+00 
    6.3906237554828396E+00 
    6.3888748496841750E+00 
    6.3647038229401467E+00 
    6.3630396522216364E+00 
    6.3298791883730630E+00 
    6.3302808885405177E+00 
    6.2961502139145944E+00 
    6.2933993073681664E+00 
    6.2630102247585535E+00 
    6.2704700916491136E+00 
    6.2380062333056490E+00 
    6.2342744867006630E+00 
    6.2033882294654141E+00 
    6.2032762856725387E+00 
    6.1732203914550787E+00 
    6.1727263068775118E+00 
    6.1386666503578136E+00 
    6.1405224706011454E+00 
    6.1076968119116808E+00 
    6.1052461366523127E+00 
    6.0766802159121855E+00 
    6.0757464240268817E+00 
    6.0445930103709804E+00 
    6.0434566849398701E+00 
    6.0129582520498621E+00 
    6.0154896523038630E+00 
    5.8770208438000271E+00 
    5.8645237457882100E+00 
    5.5557111147025822E+00 
    5.5851629825792468E+00 
    5.2380533097118605E+00 
    5.1987336036017675E+00 
    4.9032910372564427E+00 
    4.8830761378779695E+00 
    4.5533634583724876E+00 
    4.5917018665770550E+00 
    4.2562271357802857E+00 
    4.2606102720205232E+00 
    3.9853533767853584E+00 
    3.9677941102604644E+00 
    3.6337267710617294E+00 
    3.6478865048175626E+00 
    3.3069437099347230E+00 
    3.3112658857974919E+00 
    3.0297964836741054E+00 
    3.0463672862445401E+00 
    2.7632825990602097E+00 
    2.7228636420562466E+00 
    2.4172953956449099E+00 
    2.4631026923937149E+00 
    2.1229758641539114E+00 
    2.1059748442637378E+00 
    1.7743593000190412E+00 
    1.7955733398111118E+00 
    1.4916521507045424E+00 
    1.5033711661503251E+00 
    1.1958216263593950E+00 
    1.1568660967821707E+00 
    6.4835821837790553E+00 
    6.4866598975357039E+00 
    6.4524912676806085E+00 
    6.4521485916314765E+00 
    6.4229301238899685E+00 
    6.4204224357672404E+00 
    6.3902079567396903E+00 
    6.3924350513175261E+00 
    6.3614027679754130E+00 
    6.3571110088873084E+00 
    6.3251870952350249E+00 
    6.3260842215327129E+00 
    6.2909375461948844E+00 
    6.2937754457714510E+00 
    6.2659072906736322E+00 
    6.2612732662882031E+00 
    6.2337753956259414E+00 
    6.2347790242947694E+00 
    6.2035310712219722E+00 
    6.2057821154499928E+00 
    6.1739571323785460E+00 
    6.1714465737038173E+00 
    6.1398655002543530E+00 
    6.1411073290505644E+00 
    6.1059193420636708E+00 
    6.1095871797556338E+00 
    6.0755158436901908E+00 
    6.0752254289627903E+00 
    6.0480676529495812E+00 
    6.0446455114875128E+00 
    6.0157210517077520E+00 
    6.0165161406235272E+00 
    5.8668680998094977E+00 
    5.8777973752901049E+00 
    5.5484293477947002E+00 
    5.5390446527767452E+00 
    5.1914447573401343E+00 
    5.1789306999610423E+00 
    4.8631926934309746E+00 
    4.8942540739030731E+00 
    4.5955245920095678E+00 
    4.5618285014522124E+00 
    4.2936030925192306E+00 
    4.3008367839038097E+00 
    3.9909091161096963E+00 
    4.0086940276615746E+00 
    3.6795393444134898E+00 
    3.6609585801583391E+00 
    3.3181540788014772E+00 
    3.3309128891917776E+00 
    3.0106277047288659E+00 
    2.9972370064616030E+00 
    2.6874019445943240E+00 
    2.7036584748245840E+00 
    2.4108837035294268E+00 
    2.3793188657325217E+00 
    2.0879121489123946E+00 
    2.1087404411641337E+00 
    1.7660752099742876E+00 
    1.7556357856751870E+00 
    1.4641725610994936E+00 
    1.4419210412911934E+00 
    1.1401323544477897E+00 
    1.1751015500679785E+00 
    6.4855502408839776E+00 
    6.4832490815096495E+00 
    6.4498305603027468E+00 
    6.4530353848287305E+00 
    6.4191298419068783E+00 
    6.4196570881304593E+00 
    6.3901002656535901E+00 
    6.3881580021152446E+00 
    6.3598892198301726E+00 
    6.3625770969452518E+00 
    6.3321983662312240E+00 
    6.3299254798154507E+00 
    6.2952942121368514E+00 
    6.2936097489894207E+00 
    6.2632184420663766E+00 
    6.2644674734717976E+00 
    6.2318407905668476E+00 
    6.2325857446130275E+00 
    6.1995902539431444E+00 
    6.1975884226737241E+00 
    6.1676632146126176E+00 
    6.1679513349737229E+00 
    6.1405196426420749E+00 
    6.1389163865029381E+00 
    6.1122919476416238E+00 
    6.1140103928532135E+00 
    6.0793779780052351E+00 
    6.0782598209793939E+00 
    6.0406445292507431E+00 
    6.0436658254591711E+00 
    6.0124708046294266E+00 
    6.0119530264422760E+00 
    5.8611734132656528E+00 
    5.8642221619285522E+00 
    5.5613765925520378E+00 
    5.5399895772574670E+00 
    5.1951367156416293E+00 
    5.2321973213620598E+00 
    4.9057507886914866E+00 
    4.8745426843967294E+00 
    4.5421588539554030E+00 
    4.5735386400724956E+00 
    4.2733526189810727E+00 
    4.2389513016471749E+00 
    3.9676462075847336E+00 
    3.9848840622110266E+00 
    3.6487497021835598E+00 
    3.6696417155113643E+00 
    3.3398388927481246E+00 
    3.3082678062901252E+00 
    2.9945895701929448E+00 
    3.0197965892990188E+00 
    2.7136162939167470E+00 
    2.6898688233345851E+00 
    2.4242953218976293E+00 
    2.4310248980241909E+00 
    2.1220938097318456E+00 
    2.1261404711079095E+00 
    1.7817587751205224E+00 
    1.7991404225023935E+00 
    1.4527860830585553E+00 
    1.4425741619716312E+00 
    1.1318200786601089E+00 
    1.1213630812659190E+00 
    6.4834761611535390E+00 
    6.4846830938575337E+00 
    6.4526784774801662E+00 
    6.4512080800720266E+00 
    6.4242388867923976E+00 
    6.4209326185869768E+00 
    6.3878510162996367E+00 
    6.3910862255300245E+00 
    6.3585449640830873E+00 
    6.3557036955737773E+00 
    6.3270966560766650E+00 
    6.3308071652165880E+00 
    6.2944454487122519E+00 
    6.2975001235952028E+00 
    6.2632654853423286E+00 
    6.2627937706600649E+00 
    6.2346715143540230E+00 
    6.2352293892392305E+00 
    6.2061253272445454E+00 
    6.2031829333028359E+00 
    6.1719486797726084E+00 
    6.1712209801280782E+00 
    6.1392050421679141E+00 
    6.1417243207413330E+00 
    6.1104549418036935E+00 
    6.1077466045964410E+00 
    6.0768684067594849E+00 
    6.0766943125943520E+00 
    6.0426208709607785E+00 
    6.0444622972334212E+00 
    6.0143883914399261E+00 
    6.0129046595151108E+00 
    5.8599927654507020E+00 
    5.8545560815281155E+00 
    5.5134654729461055E+00 
    5.5421253949258578E+00 
    5.2141352070264286E+00 
    5.2064308234943901E+00 
    4.9495262615526983E+00 
    4.9308681238603151E+00 
    4.6113743251539976E+00 
    4.6023648866030324E+00 
    4.2753878472172024E+00 
    4.3123554557139183E+00 
    4.0115117812219623E+00 
    3.9714205122671853E+00 
    3.6542907852763804E+00 
    3.6502689198446667E+00 
    3.3154655108508102E+00 
    3.3700067325514027E+00 
    3.0628248220572072E+00 
    3.0282088603441100E+00 
    2.7317838895378248E+00 
    2.7562281708301910E+00 
    2.4491235046663196E+00 
    2.4397836732178995E+00 
    2.1324689606249336E+00 
    2.1099055243111948E+00 
    1.7885462686902063E+00 
    1.7725120135750014E+00 
    1.4431404295132086E+00 
    1.4613530874447189E+00 
    1.1391008566240650E+00 
    1.1437504278985422E+00 
    6.4849289642265120E+00 
    6.4839356973825701E+00 
    6.4515919213118469E+00 
    6.4525164002041899E+00 
    6.4208269571484919E+00 
    6.4216097891709243E+00 
    6.3916434264011333E+00 
    6.3885772398633067E+00 
    6.3566010639147734E+00 
    6.3601192888921911E+00 
    6.3303664886946018E+00 
    6.3268733365210910E+00 
    6.2959179644525323E+00 
    6.2947268753286254E+00 
    6.2636941886030879E+00 
    6.2640844880420765E+00 
    6.2343470814468915E+00 
    6.2376244849567763E+00 
    6.2032328772426180E+00 
    6.2026097826370590E+00 
    6.1671600822966175E+00 
    6.1698318570646489E+00 
    6.1398363246732739E+00 
    6.1367796744240426E+00 
    6.1070020932736417E+00 
    6.1095535986265022E+00 
    6.0763501633578185E+00 
    6.0756500383297745E+00 
    6.0469680280006761E+00 
    6.0445901560296988E+00 
    6.0152763571676591E+00 
    6.0166612747386505E+00 
    5.8367060904630801E+00 
    5.8121381888171282E+00 
    5.4960598067992894E+00 
    5.5081259777233971E+00 
    5.2203141289586297E+00 
    5.1953219579390177E+00 
    4.8695986228192281E+00 
    4.9386921001351567E+00 
    4.5976517406650119E+00 
    4.5823138584827730E+00 
    4.2772874515245558E+00 
    4.2619970241951224E+00 
    3.9597411202237645E+00 
    3.9722648020426128E+00 
    3.6841062279631922E+00 
    3.6705969133408143E+00 
    3.3955397037632808E+00 
    3.3704696416946351E+00 
    3.0660597152504856E+00 
    3.0687734664081781E+00 
    2.7575247203027278E+00 
    2.7402602254489601E+00 
    2.4183122988926158E+00 
    2.4559662818091308E+00 
    2.1129539388389258E+00 
    2.1409004117916268E+00 
    1.8061162183922423E+00 
    1.7774822067810110E+00 
    1.4317716102989060E+00 
    1.4314280852061394E+00 
    1.1275568297802554E+00 
    1.1305690831209798E+00 
    6.4831733867900843E+00 
    6.4852590989370613E+00 
    6.4529264893419622E+00 
    6.4485325695857458E+00 
    6.4187991946165877E+00 
    6.4209229091670332E+00 
    6.3874996038469938E+00 