# vtk DataFile Version 2.0
Pressure Field Data 
ASCII 
DATASET UNSTRUCTURED_GRID 

POINTS 16641 float 

    0.0000000000000000E+00     0.0000000000000000E+00     0.0000000000000000E+00 
    1.0000000000000000E+00     0.0000000000000000E+00     0.0000000000000000E+00 
    1.0000000000000000E+00     1.0000000000000000E+00     0.0000000000000000E+00 
    0.0000000000000000E+00     1.0000000000000000E+00     0.0000000000000000E+00 
    7.8124999999851586E-03     0.0000000000000000E+00     0.0000000000000000E+00 
    1.5624999999970480E-02     0.0000000000000000E+00     0.0000000000000000E+00 
    2.3437499999955470E-02     0.0000000000000000E+00     0.0000000000000000E+00 
    3.1249999999940450E-02     0.0000000000000000E+00     0.0000000000000000E+00 
    3.9062499999923402E-02     0.0000000000000000E+00     0.0000000000000000E+00 
    4.6874999999906353E-02     0.0000000000000000E+00     0.0000000000000000E+00 
    5.4687499999889637E-02     0.0000000000000000E+00     0.0000000000000000E+00 
    6.2499999999872928E-02     0.0000000000000000E+00     0.0000000000000000E+00 
    7.0312499999860278E-02     0.0000000000000000E+00     0.0000000000000000E+00 
    7.8124999999847636E-02     0.0000000000000000E+00     0.0000000000000000E+00 
    8.5937499999835673E-02     0.0000000000000000E+00     0.0000000000000000E+00 
    9.3749999999823710E-02     0.0000000000000000E+00     0.0000000000000000E+00 
    1.0156249999981180E-01     0.0000000000000000E+00     0.0000000000000000E+00 
    1.0937499999979980E-01     0.0000000000000000E+00     0.0000000000000000E+00 
    1.1718749999978650E-01     0.0000000000000000E+00     0.0000000000000000E+00 
    1.2499999999977310E-01     0.0000000000000000E+00     0.0000000000000000E+00 
    1.3281249999975170E-01     0.0000000000000000E+00     0.0000000000000000E+00 
    1.4062499999973019E-01     0.0000000000000000E+00     0.0000000000000000E+00 
    1.4843749999970740E-01     0.0000000000000000E+00     0.0000000000000000E+00 
    1.5624999999968461E-01     0.0000000000000000E+00     0.0000000000000000E+00 
    1.6406249999966180E-01     0.0000000000000000E+00     0.0000000000000000E+00 
    1.7187499999963901E-01     0.0000000000000000E+00     0.0000000000000000E+00 
    1.7968749999961620E-01     0.0000000000000000E+00     0.0000000000000000E+00 
    1.8749999999959341E-01     0.0000000000000000E+00     0.0000000000000000E+00 
    1.9531249999957059E-01     0.0000000000000000E+00     0.0000000000000000E+00 
    2.0312499999954781E-01     0.0000000000000000E+00     0.0000000000000000E+00 
    2.1093749999952499E-01     0.0000000000000000E+00     0.0000000000000000E+00 
    2.1874999999950220E-01     0.0000000000000000E+00     0.0000000000000000E+00 
    2.2656249999947939E-01     0.0000000000000000E+00     0.0000000000000000E+00 
    2.3437499999945660E-01     0.0000000000000000E+00     0.0000000000000000E+00 
    2.4218749999943379E-01     0.0000000000000000E+00     0.0000000000000000E+00 
    2.4999999999941089E-01     0.0000000000000000E+00     0.0000000000000000E+00 
    2.5781249999938821E-01     0.0000000000000000E+00     0.0000000000000000E+00 
    2.6562499999936529E-01     0.0000000000000000E+00     0.0000000000000000E+00 
    2.7343749999934253E-01     0.0000000000000000E+00     0.0000000000000000E+00 
    2.8124999999931971E-01     0.0000000000000000E+00     0.0000000000000000E+00 
    2.8906249999929701E-01     0.0000000000000000E+00     0.0000000000000000E+00 
    2.9687499999927408E-01     0.0000000000000000E+00     0.0000000000000000E+00 
    3.0468749999925132E-01     0.0000000000000000E+00     0.0000000000000000E+00 
    3.1249999999922851E-01     0.0000000000000000E+00     0.0000000000000000E+00 
    3.2031249999920580E-01     0.0000000000000000E+00     0.0000000000000000E+00 
    3.2812499999918288E-01     0.0000000000000000E+00     0.0000000000000000E+00 
    3.3593749999916012E-01     0.0000000000000000E+00     0.0000000000000000E+00 
    3.4374999999913730E-01     0.0000000000000000E+00     0.0000000000000000E+00 
    3.5156249999911449E-01     0.0000000000000000E+00     0.0000000000000000E+00 
    3.5937499999909173E-01     0.0000000000000000E+00     0.0000000000000000E+00 
    3.6718749999906891E-01     0.0000000000000000E+00     0.0000000000000000E+00 
    3.7499999999904610E-01     0.0000000000000000E+00     0.0000000000000000E+00 
    3.8281249999902328E-01     0.0000000000000000E+00     0.0000000000000000E+00 
    3.9062499999900052E-01     0.0000000000000000E+00     0.0000000000000000E+00 
    3.9843749999897771E-01     0.0000000000000000E+00     0.0000000000000000E+00 
    4.0624999999895489E-01     0.0000000000000000E+00     0.0000000000000000E+00 
    4.1406249999893208E-01     0.0000000000000000E+00     0.0000000000000000E+00 
    4.2187499999890932E-01     0.0000000000000000E+00     0.0000000000000000E+00 
    4.2968749999888650E-01     0.0000000000000000E+00     0.0000000000000000E+00 
    4.3749999999886358E-01     0.0000000000000000E+00     0.0000000000000000E+00 
    4.4531249999884093E-01     0.0000000000000000E+00     0.0000000000000000E+00 
    4.5312499999881811E-01     0.0000000000000000E+00     0.0000000000000000E+00 
    4.6093749999879519E-01     0.0000000000000000E+00     0.0000000000000000E+00 
    4.6874999999877243E-01     0.0000000000000000E+00     0.0000000000000000E+00 
    4.7656249999874972E-01     0.0000000000000000E+00     0.0000000000000000E+00 
    4.8437499999872691E-01     0.0000000000000000E+00     0.0000000000000000E+00 
    4.9218749999870948E-01     0.0000000000000000E+00     0.0000000000000000E+00 
    4.9999999999869210E-01     0.0000000000000000E+00     0.0000000000000000E+00 
    5.0781249999870726E-01     0.0000000000000000E+00     0.0000000000000000E+00 
    5.1562499999872247E-01     0.0000000000000000E+00     0.0000000000000000E+00 
    5.2343749999874301E-01     0.0000000000000000E+00     0.0000000000000000E+00 
    5.3124999999876366E-01     0.0000000000000000E+00     0.0000000000000000E+00 
    5.3906249999878431E-01     0.0000000000000000E+00     0.0000000000000000E+00 
    5.4687499999880484E-01     0.0000000000000000E+00     0.0000000000000000E+00 
    5.5468749999882538E-01     0.0000000000000000E+00     0.0000000000000000E+00 
    5.6249999999884603E-01     0.0000000000000000E+00     0.0000000000000000E+00 
    5.7031249999886668E-01     0.0000000000000000E+00     0.0000000000000000E+00 
    5.7812499999888733E-01     0.0000000000000000E+00     0.0000000000000000E+00 
    5.8593749999890798E-01     0.0000000000000000E+00     0.0000000000000000E+00 
    5.9374999999892852E-01     0.0000000000000000E+00     0.0000000000000000E+00 
    6.0156249999894906E-01     0.0000000000000000E+00     0.0000000000000000E+00 
    6.0937499999896971E-01     0.0000000000000000E+00     0.0000000000000000E+00 
    6.1718749999899036E-01     0.0000000000000000E+00     0.0000000000000000E+00 
    6.2499999999901090E-01     0.0000000000000000E+00     0.0000000000000000E+00 
    6.3281249999903144E-01     0.0000000000000000E+00     0.0000000000000000E+00 
    6.4062499999905209E-01     0.0000000000000000E+00     0.0000000000000000E+00 
    6.4843749999907274E-01     0.0000000000000000E+00     0.0000000000000000E+00 
    6.5624999999909339E-01     0.0000000000000000E+00     0.0000000000000000E+00 
    6.6406249999911404E-01     0.0000000000000000E+00     0.0000000000000000E+00 
    6.7187499999913458E-01     0.0000000000000000E+00     0.0000000000000000E+00 
    6.7968749999915512E-01     0.0000000000000000E+00     0.0000000000000000E+00 
    6.8749999999917577E-01     0.0000000000000000E+00     0.0000000000000000E+00 
    6.9531249999919642E-01     0.0000000000000000E+00     0.0000000000000000E+00 
    7.0312499999921696E-01     0.0000000000000000E+00     0.0000000000000000E+00 
    7.1093749999923750E-01     0.0000000000000000E+00     0.0000000000000000E+00 
    7.1874999999925815E-01     0.0000000000000000E+00     0.0000000000000000E+00 
    7.2656249999927880E-01     0.0000000000000000E+00     0.0000000000000000E+00 
    7.3437499999929945E-01     0.0000000000000000E+00     0.0000000000000000E+00 
    7.4218749999932010E-01     0.0000000000000000E+00     0.0000000000000000E+00 
    7.4999999999934064E-01     0.0000000000000000E+00     0.0000000000000000E+00 
    7.5781249999936118E-01     0.0000000000000000E+00     0.0000000000000000E+00 
    7.6562499999938183E-01     0.0000000000000000E+00     0.0000000000000000E+00 
    7.7343749999940248E-01     0.0000000000000000E+00     0.0000000000000000E+00 
    7.8124999999942302E-01     0.0000000000000000E+00     0.0000000000000000E+00 
    7.8906249999944356E-01     0.0000000000000000E+00     0.0000000000000000E+00 
    7.9687499999946421E-01     0.0000000000000000E+00     0.0000000000000000E+00 
    8.0468749999948486E-01     0.0000000000000000E+00     0.0000000000000000E+00 
    8.1249999999950551E-01     0.0000000000000000E+00     0.0000000000000000E+00 
    8.2031249999952616E-01     0.0000000000000000E+00     0.0000000000000000E+00 
    8.2812499999954670E-01     0.0000000000000000E+00     0.0000000000000000E+00 
    8.3593749999956724E-01     0.0000000000000000E+00     0.0000000000000000E+00 
    8.4374999999958789E-01     0.0000000000000000E+00     0.0000000000000000E+00 
    8.5156249999960854E-01     0.0000000000000000E+00     0.0000000000000000E+00 
    8.5937499999962907E-01     0.0000000000000000E+00     0.0000000000000000E+00 
    8.6718749999964961E-01     0.0000000000000000E+00     0.0000000000000000E+00 
    8.7499999999967026E-01     0.0000000000000000E+00     0.0000000000000000E+00 
    8.8281249999969091E-01     0.0000000000000000E+00     0.0000000000000000E+00 
    8.9062499999971156E-01     0.0000000000000000E+00     0.0000000000000000E+00 
    8.9843749999973221E-01     0.0000000000000000E+00     0.0000000000000000E+00 
    9.0624999999975275E-01     0.0000000000000000E+00     0.0000000000000000E+00 
[...]
CELL_DATA 16384 
SCALARS Pressure float 1 
LOOKUP_TABLE default 

    6.4960937499999840E+00 
    6.4960937499999840E+00 
    6.4882812499999520E+00 
    6.4882812499999512E+00 
    6.4804687499999192E+00 
    6.4804687499999201E+00 
    6.4726562499998881E+00 
    6.4726562499998872E+00 
    6.4648437499998543E+00 
    6.4648437499998561E+00 
    6.4570312499998241E+00 
    6.4570312499998224E+00 
    6.4492187499997895E+00 
    6.4492187499997922E+00 
    6.4414062499997602E+00 
    6.4414062499997575E+00 
    6.4335937499997256E+00 
    6.4335937499997282E+00 
    6.4257812499996962E+00 
    6.4257812499996927E+00 
    6.4179687499996607E+00 
    6.4179687499996643E+00 
    6.4101562499996323E+00 
    6.4101562499996279E+00 
    6.4023437499995959E+00 
    6.4023437499996003E+00 
    6.3945312499995683E+00 
    6.3945312499995639E+00 
    6.3867187499995310E+00 
    6.3867187499995364E+00 
    6.3789062499995044E+00 
    6.3789062499994991E+00 
    6.3710937499994662E+00 
    6.3710937499994724E+00 
    6.3632812499994404E+00 
    6.3632812499994342E+00 
    6.3554687499994023E+00 
    6.3554687499994085E+00 
    6.3476562499993765E+00 
    6.3476562499993694E+00 
    6.3398437499993374E+00 
    6.3398437499993454E+00 
    6.3320312499993134E+00 
    6.3320312499993046E+00 
    6.3242187499992726E+00 
    6.3242187499992815E+00 
    6.3164062499992495E+00 
    6.3164062499992406E+00 
    6.3085937499992077E+00 
    6.3085937499992175E+00 
    6.3007812499991855E+00 
    6.3007812499991758E+00 
    6.2929687499991438E+00 
    6.2929687499991536E+00 
    6.2851562499991216E+00 
    6.2851562499991109E+00 
    6.2773437499990790E+00 
    6.2773437499990896E+00 
    6.2695312499990585E+00 
    6.2695312499990461E+00 
    6.2617187499990141E+00 
    6.2617187499990266E+00 
    6.2539062499989946E+00 
    6.2539062499989821E+00 
    6.2460937499989502E+00 
    6.2460937499989626E+00 
    6.2382812499989306E+00 
    6.2382812499989173E+00 
    6.2304687499988853E+00 
    6.2304687499988987E+00 
    6.2226562499988667E+00 
    6.2226562499988525E+00 
    6.2148437499988205E+00 
    6.2148437499988347E+00 
    6.2070312499988027E+00 
    6.2070312499987885E+00 
    6.1992187499987557E+00 
    6.1992187499987716E+00 
    6.1914062499987397E+00 
    6.1914062499987237E+00 
    6.1835937499986908E+00 
    6.1835937499987077E+00 
    6.1757812499986757E+00 
    6.1757812499986589E+00 
    6.1679687499986269E+00 
    6.1679687499986438E+00 
    6.1601562499986118E+00 
    6.1601562499985940E+00 
    6.1523437499985620E+00 
    6.1523437499985798E+00 
    6.1445312499985487E+00 
    6.1445312499985301E+00 
    6.1367187499984972E+00 
    6.1367187499985167E+00 
    6.1289062499984848E+00 
    6.1289062499984652E+00 
    6.1210937499984333E+00 
    6.1210937499984528E+00 
    6.1132812499984208E+00 
    6.1132812499984004E+00 
    6.1054687499983684E+00 
    6.1054687499983888E+00 
    6.0976562499983569E+00 
    6.0976562499983356E+00 
    6.0898437499983036E+00 
    6.0898437499983249E+00 
    6.0820312499982929E+00 
    6.0820312499982716E+00 
    6.0742187499982387E+00 
    6.0742187499982618E+00 
    6.0664062499982299E+00 
    6.0664062499982068E+00 
    6.0585937499981748E+00 
    6.0585937499981979E+00 
    6.0507812499981659E+00 
    6.0507812499981419E+00 
    6.0429687499981100E+00 
    6.0429687499981339E+00 
    6.0351562499981020E+00 
    6.0351562499980780E+00 
    6.0273437499980451E+00 
    6.0273437499980700E+00 
    6.0195312499980389E+00 
    6.0195312499980131E+00 
    6.0117187499979856E+00 
    6.0117187499980123E+00 
    6.0039062499979909E+00 
    6.0039062499979643E+00 
    5.9609374999797833E+00 
    5.9609374999800249E+00 
    5.8828124999804690E+00 
    5.8828124999802220E+00 
    5.8046874999806466E+00 
    5.8046874999809290E+00 
    5.7265624999814388E+00 
    5.7265624999811751E+00 
    5.6484374999817497E+00 
    5.6484374999819833E+00 
    5.5703124999825135E+00 
    5.5703124999822879E+00 
    5.4921874999827853E+00 
    5.4921874999830314E+00 
    5.4140624999835651E+00 
    5.4140624999833245E+00 
    5.3359374999839098E+00 
    5.3359374999841149E+00 
    5.2578124999846532E+00 
    5.2578124999844524E+00 
    5.1796874999850271E+00 
    5.1796874999851941E+00 
    5.1015624999857270E+00 
    5.1015624999855671E+00 
    5.0234374999860725E+00 
    5.0234374999862528E+00 
    4.9453124999867839E+00 
    4.9453124999866098E+00 
    4.8671874999871125E+00 
    4.8671874999873062E+00 
    4.7890624999878426E+00 
    4.7890624999876543E+00 
    4.7109374999882512E+00 
    4.7109374999883933E+00 
    4.6328124999889244E+00 
    4.6328124999887903E+00 
    4.5546874999893312E+00 
    4.5546874999894573E+00 
    4.4765624999899902E+00 
    4.4765624999898703E+00 
    4.3984374999903384E+00 
    4.3984374999905045E+00 
    4.3203124999910312E+00 
    4.3203124999908740E+00 
    4.2421874999914433E+00 
    4.2421874999915756E+00 
    4.1640624999921085E+00 
    4.1640624999919815E+00 
    4.0859374999924931E+00 
    4.0859374999926299E+00 
    4.0078124999931628E+00 
    4.0078124999930322E+00 
    3.9296874999936104E+00 
    3.9296874999937117E+00 
    3.8515624999942517E+00 
    3.8515624999941513E+00 
    3.7734374999946816E+00 
    3.7734374999947793E+00 
    3.6953124999953086E+00 
    3.6953124999952145E+00 
    3.6171874999957270E+00 
    3.6171874999958300E+00 
    3.5390624999963620E+00 
    3.5390624999962652E+00 
    3.4609374999968372E+00 
    3.4609374999969047E+00 
    3.3828124999974323E+00 
    3.3828124999973728E+00 
    3.3046874999978453E+00 
    3.3046874999979439E+00 
    3.2265624999984892E+00 
    3.2265624999983933E+00 
    3.1484374999990603E+00 
    3.1484374999990745E+00 
    3.0703124999996074E+00 
    3.0703124999995994E+00 
    2.9921875000000817E+00 
    2.9921875000001172E+00 
    2.9140625000006519E+00 
    2.9140625000006217E+00 
    2.8359375000011600E+00 
    2.8359375000011866E+00 
    2.7578125000017231E+00 
    2.7578125000017053E+00 
    2.6796875000022986E+00 
    2.6796875000022791E+00 
    2.6015625000028226E+00 
    2.6015625000028422E+00 
    2.5234375000033378E+00 
    2.5234375000033360E+00 
    2.4453125000038511E+00 
    2.4453125000038618E+00 
    2.3671875000043574E+00 
    2.3671875000043361E+00 
    2.2890625000047642E+00 
    2.2890625000047926E+00 
    2.2109375000048530E+00 
    2.2109375000048530E+00 
    2.1328125000046345E+00 
    2.1328125000046363E+00 
    2.0546875000043858E+00 
    2.0546875000043734E+00 
    1.9765625000040501E+00 
    1.9765625000040608E+00 
    1.8984375000037392E+00 
    1.8984375000037268E+00 
    1.8203125000033999E+00 
    1.8203125000034124E+00 
    1.7421875000030926E+00 
    1.7421875000030784E+00 
    1.6640625000027605E+00 
    1.6640625000027693E+00 
    1.5859375000024514E+00 
    1.5859375000024389E+00 
    1.5078125000021139E+00 
    1.5078125000021245E+00 
    1.4296875000017852E+00 
    1.4296875000017835E+00 
    1.3515625000014584E+00 
    1.3515625000014602E+00 
    1.2734375000011369E+00 
    1.2734375000011333E+00 
    1.1953125000008082E+00 
    1.1953125000008100E+00 
    1.1171875000004849E+00 
    1.1171875000004832E+00 
    1.0390625000001616E+00 
    1.0390625000001616E+00 
    6.4960937499999840E+00 
    6.4960937499999840E+00 
    6.4882812499999529E+00 
    6.4882812499999529E+00 
    6.4804687499999210E+00 
    6.4804687499999218E+00 
    6.4726562499998908E+00 
    6.4726562499998899E+00 
    6.4648437499998579E+00 
    6.4648437499998597E+00 
    6.4570312499998286E+00 
    6.4570312499998259E+00 
    6.4492187499997948E+00 
    6.4492187499997975E+00 
    6.4414062499997664E+00 
    6.4414062499997629E+00 
    6.4335937499997318E+00 
    6.4335937499997344E+00 
    6.4257812499997033E+00 
    6.4257812499996998E+00 
    6.4179687499996687E+00 
    6.4179687499996723E+00 
    6.4101562499996412E+00 
    6.4101562499996367E+00 
    6.4023437499996048E+00 
    6.4023437499996092E+00 
    6.3945312499995781E+00 
    6.3945312499995737E+00 
    6.3867187499995417E+00 
    6.3867187499995470E+00 
    6.3789062499995159E+00 
    6.3789062499995106E+00 
    6.3710937499994786E+00 
    6.3710937499994849E+00 
    6.3632812499994538E+00 
    6.3632812499994476E+00 
    6.3554687499994156E+00 
    6.3554687499994227E+00 
    6.3476562499993916E+00 
    6.3476562499993845E+00 
    6.3398437499993525E+00 
    6.3398437499993605E+00 
    6.3320312499993294E+00 
    6.3320312499993214E+00 
    6.3242187499992903E+00 
    6.3242187499992983E+00 
    6.3164062499992673E+00 
    6.3164062499992584E+00 
    6.3085937499992273E+00 
    6.3085937499992362E+00 
    6.3007812499992060E+00 
    6.3007812499991953E+00 
    6.2929687499991642E+00 
    6.2929687499991749E+00 
    6.2851562499991438E+00 
    6.2851562499991331E+00 
    6.2773437499991012E+00 
    6.2773437499991127E+00 
    6.2695312499990816E+00 
    6.2695312499990701E+00 
    6.2617187499990381E+00 
    6.2617187499990505E+00 
    6.2539062499990195E+00 
    6.2539062499990070E+00 
    6.2460937499989759E+00 
    6.2460937499989884E+00 
    6.2382812499989573E+00 
    6.2382812499989440E+00 
    6.2304687499989129E+00 
    6.2304687499989262E+00 
    6.2226562499988951E+00 
    6.2226562499988809E+00 
    6.2148437499988498E+00 
    6.2148437499988640E+00 
    6.2070312499988329E+00 
    6.2070312499988178E+00 
    6.1992187499987867E+00 
    6.1992187499988027E+00 
    6.1914062499987716E+00 
    6.1914062499987557E+00 
    6.1835937499987237E+00 
    6.1835937499987406E+00 
    6.1757812499987095E+00 
    6.1757812499986926E+00 
    6.1679687499986615E+00 
    6.1679687499986784E+00 
    6.1601562499986473E+00 
    6.1601562499986295E+00 
    6.1523437499985985E+00 
    6.1523437499986162E+00 
    6.1445312499985851E+00 
    6.1445312499985665E+00 
    6.1367187499985354E+00 
    6.1367187499985540E+00 
    6.1289062499985230E+00 
    6.1289062499985043E+00 
    6.1210937499984723E+00 
    6.1210937499984928E+00 
    6.1132812499984617E+00 
    6.1132812499984412E+00 
    6.1054687499984102E+00 
    6.1054687499984306E+00 
    6.0976562499983995E+00 
    6.0976562499983782E+00 
    6.0898437499983462E+00 
    6.0898437499983684E+00 
    6.0820312499983373E+00 
    6.0820312499983151E+00 
    6.0742187499982840E+00 
    6.0742187499983062E+00 
    6.0664062499982752E+00 
    6.0664062499982530E+00 
    6.0585937499982210E+00 
    6.0585937499982441E+00 
    6.0507812499982130E+00 
    6.0507812499981899E+00 
    6.0429687499981579E+00 
    6.0429687499981819E+00 
    6.0351562499981508E+00 
    6.0351562499981268E+00 
    6.0273437499980957E+00 
    6.0273437499981206E+00 
    6.0195312499980895E+00 
    6.0195312499980638E+00 
    6.0117187499980380E+00 
    6.0117187499980638E+00 
    6.0039062499980425E+00 
    6.0039062499980167E+00 
    5.9609374999802789E+00 
    5.9609374999805356E+00 
    5.8828124999809530E+00 
    5.8828124999807123E+00 
    5.8046874999811813E+00 
    5.8046874999814211E+00 
    5.7265624999819433E+00 
    5.7265624999816964E+00 
    5.6484374999822231E+00 
    5.6484374999824656E+00 
    5.5703124999829869E+00 
    5.5703124999827498E+00 
    5.4921874999832747E+00 
    5.4921874999835074E+00 
    5.4140624999840288E+00 
    5.4140624999838014E+00 
    5.3359374999843325E+00 
    5.3359374999845510E+00 
    5.2578124999850715E+00 
    5.2578124999848619E+00 
    5.1796874999853912E+00 
    5.1796874999855937E+00 
    5.1015624999861160E+00 
    5.1015624999859188E+00 
    5.0234374999864446E+00 
    5.0234374999866365E+00 
    4.9453124999871569E+00 
    4.9453124999869695E+00 
    4.8671874999874953E+00 
    4.8671874999876774E+00 
    4.7890624999882005E+00 
    4.7890624999880238E+00 
    4.7109374999885558E+00 
    4.7109374999887237E+00 
    4.6328124999892442E+00 
    4.6328124999890825E+00 
    4.5546874999896083E+00 
    4.5546874999897637E+00 
    4.4765624999902842E+00 
    4.4765624999901341E+00 
    4.3984374999906599E+00 
    4.3984374999908074E+00 
    4.3203124999913305E+00 
    4.3203124999911857E+00 
    4.2421874999917151E+00 
    4.2421874999918519E+00 
    4.1640624999923741E+00 
    4.1640624999922409E+00 
    4.0859374999927658E+00 
    4.0859374999928928E+00 
    4.0078124999934115E+00 
    4.0078124999932925E+00 
    3.9296874999938227E+00 
    3.9296874999939346E+00 
    3.8515624999944569E+00 
    3.8515624999943512E+00 
    3.7734374999948797E+00 
    3.7734374999949800E+00 
    3.6953124999955005E+00 
    3.6953124999954046E+00 
    3.6171874999959277E+00 
    3.6171874999960210E+00 
    3.5390624999965414E+00 
    3.5390624999964553E+00 
    3.4609374999969820E+00 
    3.4609374999970637E+00 
    3.3828124999975842E+00 
    3.3828124999975078E+00 
    3.3046874999980327E+00 
    3.3046874999981037E+00 
    3.2265624999986278E+00 
    3.2265624999985656E+00 
    3.1484374999991047E+00 
    3.1484374999991518E+00 
    3.0703124999996758E+00 
    3.0703124999996314E+00 
    2.9921875000001563E+00 
    2.9921875000001972E+00 
    2.9140625000007194E+00 
    2.9140625000006857E+00 
    2.8359375000012115E+00 
    2.8359375000012417E+00 
    2.7578125000017621E+00 
    2.7578125000017391E+00 
    2.6796875000022720E+00 
    2.6796875000022844E+00 
    2.6015625000028066E+00 
    2.6015625000028066E+00 
    2.5234375000033307E+00 
    2.5234375000033289E+00 
    2.4453125000038494E+00 
    2.4453125000038529E+00 
    2.3671875000043254E+00 
    2.3671875000043165E+00 
    2.2890625000047340E+00 
    2.2890625000047464E+00 
    2.2109375000048459E+00 
    2.2109375000048335E+00 
    2.1328125000046168E+00 
    2.1328125000046292E+00 
    2.0546875000043592E+00 
    2.0546875000043467E+00 
    1.9765625000040252E+00 
    1.9765625000040359E+00 
    1.8984375000037144E+00 
    1.8984375000037037E+00 
    1.8203125000033786E+00 
    1.8203125000033893E+00 
    1.7421875000030678E+00 
    1.7421875000030571E+00 
    1.6640625000027374E+00 
    1.6640625000027462E+00 
    1.5859375000024265E+00 
    1.5859375000024158E+00 
    1.5078125000020943E+00 
    1.5078125000021032E+00 
    1.4296875000017781E+00 
    1.4296875000017693E+00 
    1.3515625000014477E+00 
    1.3515625000014548E+00 
    1.2734375000011298E+00 
    1.2734375000011244E+00 
    1.1953125000008011E+00 
    1.1953125000008047E+00 
    1.1171875000004814E+00 
    1.1171875000004814E+00 
    1.0390625000001599E+00 
    1.0390625000001599E+00 
    6.4960937499999849E+00 
    6.4960937499999849E+00 
    6.4882812499999547E+00 
    6.4882812499999538E+00 
    6.4804687499999227E+00 
    6.4804687499999236E+00 
    6.4726562499998934E+00 
    6.4726562499998916E+00 
    6.4648437499998614E+00 
    6.4648437499998632E+00 
    6.4570312499998321E+00 
    6.4570312499998304E+00 
    6.4492187499997993E+00 
    6.4492187499998019E+00 
    6.4414062499997717E+00 
    6.4414062499997691E+00 
    6.4335937499997380E+00 
    6.4335937499997415E+00 
    6.4257812499997105E+00 
    6.4257812499997069E+00 
    6.4179687499996758E+00 
    6.4179687499996803E+00 
    6.4101562499996492E+00 
    6.4101562499996447E+00 
    6.4023437499996145E+00 
    6.4023437499996190E+00 
    6.3945312499995879E+00 
    6.3945312499995834E+00 
    6.3867187499995524E+00 
    6.3867187499995577E+00 
    6.3789062499995275E+00 
    6.3789062499995213E+00 
    6.3710937499994911E+00 
    6.3710937499994973E+00 
    6.3632812499994662E+00 
    6.3632812499994600E+00 
    6.3554687499994298E+00 
    6.3554687499994360E+00 
    6.3476562499994058E+00 
    6.3476562499993987E+00 
    6.3398437499993685E+00 
    6.3398437499993765E+00 
    6.3320312499993463E+00 
    6.3320312499993374E+00 
    6.3242187499993072E+00 
    6.3242187499993161E+00 
    6.3164062499992859E+00 
    6.3164062499992770E+00 
    6.3085937499992459E+00 
    6.3085937499992557E+00 
    6.3007812499992255E+00 
    6.3007812499992157E+00 
    6.2929687499991847E+00 
    6.2929687499991953E+00 
    6.2851562499991651E+00 
    6.2851562499991545E+00 
    6.2773437499991234E+00 
    6.2773437499991349E+00 
    6.2695312499991047E+00 
    6.2695312499990932E+00 
    6.2617187499990630E+00 
    6.2617187499990745E+00 
    6.2539062499990443E+00 
    6.2539062499990319E+00 
    6.2460937499990017E+00 
    6.2460937499990141E+00 
    6.2382812499989839E+00 
    6.2382812499989706E+00 
    6.2304687499989404E+00 
    6.2304687499989537E+00 
    6.2226562499989235E+00 
    6.2226562499989093E+00 
    6.2148437499988791E+00 
    6.2148437499988942E+00 
    6.2070312499988640E+00 
    6.2070312499988489E+00 
    6.1992187499988178E+00 
    6.1992187499988338E+00 
    6.1914062499988036E+00 
    6.1914062499987876E+00 
    6.1835937499987566E+00 
    6.1835937499987734E+00 
    6.1757812499987432E+00 
    6.1757812499987264E+00 
    6.1679687499986962E+00 
    6.1679687499987130E+00 
    6.1601562499986828E+00 
    6.1601562499986651E+00 
    6.1523437499986349E+00 
    6.1523437499986526E+00 
    6.1445312499986224E+00 
    6.1445312499986038E+00 
    6.1367187499985736E+00 
    6.1367187499985922E+00 
    6.1289062499985620E+00 
    6.1289062499985425E+00 
    6.1210937499985123E+00 
    6.1210937499985318E+00 
    6.1132812499985016E+00 
    6.1132812499984821E+00 
    6.1054687499984510E+00 
    6.1054687499984723E+00 
    6.0976562499984421E+00 
    6.0976562499984208E+00 
    6.0898437499983897E+00 
    6.0898437499984119E+00 
    6.0820312499983817E+00 
    6.0820312499983595E+00 
    6.0742187499983284E+00 
    6.0742187499983515E+00 
    6.0664062499983213E+00 
    6.0664062499982983E+00 
    6.0585937499982681E+00 
    6.0585937499982911E+00 
    6.0507812499982609E+00 
    6.0507812499982370E+00 
    6.0429687499982068E+00 
    6.0429687499982307E+00 
    6.0351562499982006E+00 
    6.0351562499981757E+00 
    6.0273437499981455E+00 
    6.0273437499981704E+00 
    6.0195312499981402E+00 
    6.0195312499981153E+00 
    6.0117187499980895E+00 
    6.0117187499981153E+00 
    6.0039062499980949E+00 
    6.0039062499980691E+00 
    5.9609374999807967E+00 
    5.9609374999810569E+00 
    5.8828124999814655E+00 
    5.8828124999812097E+00 
    5.8046874999816724E+00 
    5.8046874999819238E+00 
    5.7265624999824336E+00 
    5.7265624999821876E+00 
    5.6484374999827054E+00 
    5.6484374999829434E+00 
    5.5703124999834532E+00 
    5.5703124999832205E+00 
    5.4921874999837366E+00 
    5.4921874999839639E+00 
    5.4140624999844729E+00 
    5.4140624999842508E+00 
    5.3359374999847669E+00 
    5.3359374999849827E+00 
    5.2578124999854916E+00 
    5.2578124999852829E+00 
    5.1796874999857980E+00 
    5.1796874999860023E+00 
    5.1015624999865121E+00 
    5.1015624999863132E+00 
    5.0234374999868283E+00 
    5.0234374999870219E+00 
    4.9453124999875309E+00 
    4.9453124999873435E+00 
    4.8671874999878586E+00 
    4.8671874999880398E+00 
    4.7890624999885505E+00 
    4.7890624999883746E+00 
    4.7109374999888924E+00 
    4.7109374999890621E+00 
    4.6328124999895710E+00 
    4.6328124999894076E+00 
    4.5546874999899210E+00 
    4.5546874999900790E+00 
    4.4765624999905897E+00 
    4.4765624999904361E+00 
    4.3984374999909530E+00 
    4.3984374999910996E+00 
    4.3203124999916085E+00 
    4.3203124999914699E+00 
    4.2421874999919869E+00 
    4.2421874999921201E+00 
    4.1640624999926299E+00 
    4.1640624999925020E+00 
    4.0859374999930171E+00 
    4.0859374999931397E+00 
    4.0078124999936486E+00 
    4.0078124999935305E+00 
    3.9296874999940457E+00 
    3.9296874999941576E+00 
    3.8515624999946674E+00 
    3.8515624999945626E+00 
    3.7734374999950795E+00 
    3.7734374999951781E+00 
    3.6953124999956870E+00 
    3.6953124999955946E+00 
    3.6171874999961089E+00 
    3.6171874999961968E+00 
    3.5390624999967066E+00 
    3.5390624999966258E+00 
    3.4609374999971418E+00 
    3.4609374999972191E+00 
    3.3828124999977263E+00 
    3.3828124999976552E+00 
    3.3046874999981704E+00 
    3.3046874999982361E+00 
    3.2265624999987459E+00 