# vtk DataFile Version 2.0
Pressure Field Data 
ASCII 
DATASET UNSTRUCTURED_GRID 

POINTS 1089 float 

    0.0000000000000000E+00     0.0000000000000000E+00     0.0000000000000000E+00 
    1.0000000000000000E+00     0.0000000000000000E+00     0.0000000000000000E+00 
    1.0000000000000000E+00     1.0000000000000000E+00     0.0000000000000000E+00 
    0.0000000000000000E+00     1.0000000000000000E+00     0.0000000000000000E+00 
    3.1249999999941821E-02     0.0000000000000000E+00     0.0000000000000000E+00 
    6.2499999999872928E-02     0.0000000000000000E+00     0.0000000000000000E+00 
    9.3749999999823030E-02     0.0000000000000000E+00     0.0000000000000000E+00 
    1.2499999999977310E-01     0.0000000000000000E+00     0.0000000000000000E+00 
    1.5624999999968331E-01     0.0000000000000000E+00     0.0000000000000000E+00 
    1.8749999999959341E-01     0.0000000000000000E+00     0.0000000000000000E+00 
    2.1874999999950220E-01     0.0000000000000000E+00     0.0000000000000000E+00 
    2.4999999999941089E-01     0.0000000000000000E+00     0.0000000000000000E+00 
    2.8124999999931971E-01     0.0000000000000000E+00     0.0000000000000000E+00 
    3.1249999999922851E-01     0.0000000000000000E+00     0.0000000000000000E+00 
    3.4374999999913730E-01     0.0000000000000000E+00     0.0000000000000000E+00 
    3.7499999999904610E-01     0.0000000000000000E+00     0.0000000000000000E+00 
    4.0624999999895478E-01     0.0000000000000000E+00     0.0000000000000000E+00 
    4.3749999999886358E-01     0.0000000000000000E+00     0.0000000000000000E+00 
    4.6874999999877792E-01     0.0000000000000000E+00     0.0000000000000000E+00 
    4.9999999999869210E-01     0.0000000000000000E+00     0.0000000000000000E+00 
    5.3124999999876910E-01     0.0000000000000000E+00     0.0000000000000000E+00 
    5.6249999999884603E-01     0.0000000000000000E+00     0.0000000000000000E+00 
    5.9374999999892841E-01     0.0000000000000000E+00     0.0000000000000000E+00 
    6.2499999999901090E-01     0.0000000000000000E+00     0.0000000000000000E+00 
    6.5624999999909328E-01     0.0000000000000000E+00     0.0000000000000000E+00 
    6.8749999999917577E-01     0.0000000000000000E+00     0.0000000000000000E+00 
    7.1874999999925815E-01     0.0000000000000000E+00     0.0000000000000000E+00 
    7.4999999999934064E-01     0.0000000000000000E+00     0.0000000000000000E+00 
    7.8124999999942302E-01     0.0000000000000000E+00     0.0000000000000000E+00 
    8.1249999999950551E-01     0.0000000000000000E+00     0.0000000000000000E+00 
    8.4374999999958789E-01     0.0000000000000000E+00     0.0000000000000000E+00 
    8.7499999999967026E-01     0.0000000000000000E+00     0.0000000000000000E+00 
    9.0624999999975264E-01     0.0000000000000000E+00     0.0000000000000000E+00 
    9.3749999999983513E-01     0.0000000000000000E+00     0.0000000000000000E+00 
    9.6874999999991751E-01     0.0000000000000000E+00     0.0000000000000000E+00 
    1.0000000000000000E+00     3.1249999999941821E-02     0.0000000000000000E+00 
    1.0000000000000000E+00     6.2499999999872928E-02     0.0000000000000000E+00 
    1.0000000000000000E+00     9.3749999999823030E-02     0.0000000000000000E+00 
    1.0000000000000000E+00     1.2499999999977310E-01     0.0000000000000000E+00 
    1.0000000000000000E+00     1.5624999999968331E-01     0.0000000000000000E+00 
    1.0000000000000000E+00     1.8749999999959341E-01     0.0000000000000000E+00 
    1.0000000000000000E+00     2.1874999999950220E-01     0.0000000000000000E+00 
    1.0000000000000000E+00     2.4999999999941089E-01     0.0000000000000000E+00 
    1.0000000000000000E+00     2.8124999999931971E-01     0.0000000000000000E+00 
    1.0000000000000000E+00     3.1249999999922851E-01     0.0000000000000000E+00 
    1.0000000000000000E+00     3.4374999999913730E-01     0.0000000000000000E+00 
    1.0000000000000000E+00     3.7499999999904610E-01     0.0000000000000000E+00 
    1.0000000000000000E+00     4.0624999999895478E-01     0.0000000000000000E+00 
    1.0000000000000000E+00     4.3749999999886358E-01     0.0000000000000000E+00 
    1.0000000000000000E+00     4.6874999999877792E-01     0.0000000000000000E+00 
    1.0000000000000000E+00     4.9999999999869210E-01     0.0000000000000000E+00 
    1.0000000000000000E+00     5.3124999999876910E-01     0.0000000000000000E+00 
    1.0000000000000000E+00     5.6249999999884603E-01     0.0000000000000000E+00 
    1.0000000000000000E+00     5.9374999999892841E-01     0.0000000000000000E+00 
    1.0000000000000000E+00     6.2499999999901090E-01     0.0000000000000000E+00 
    1.0000000000000000E+00     6.5624999999909328E-01     0.0000000000000000E+00 
    1.0000000000000000E+00     6.8749999999917577E-01     0.0000000000000000E+00 
    1.0000000000000000E+00     7.1874999999925815E-01     0.0000000000000000E+00 
    1.0000000000000000E+00     7.4999999999934064E-01     0.0000000000000000E+00 
    1.0000000000000000E+00     7.8124999999942302E-01     0.0000000000000000E+00 
    1.0000000000000000E+00     8.1249999999950551E-01     0.0000000000000000E+00 
    1.0000000000000000E+00     8.4374999999958789E-01     0.0000000000000000E+00 
    1.0000000000000000E+00     8.7499999999967026E-01     0.0000000000000000E+00 
    1.0000000000000000E+00     9.0624999999975264E-01     0.0000000000000000E+00 
    1.0000000000000000E+00     9.3749999999983513E-01     0.0000000000000000E+00 
    1.0000000000000000E+00     9.6874999999991751E-01     0.0000000000000000E+00 
    9.6874999999986700E-01     1.0000000000000000E+00     0.0000000000000000E+00 
    9.3749999999973976E-01     1.0000000000000000E+00     0.0000000000000000E+00 
    9.0624999999967670E-01     1.0000000000000000E+00     0.0000000000000000E+00 
    8.7499999999950118E-01     1.0000000000000000E+00     0.0000000000000000E+00 
    8.4374999999971556E-01     1.0000000000000000E+00     0.0000000000000000E+00 
    8.1249999999991318E-01     1.0000000000000000E+00     0.0000000000000000E+00 
    7.8125000000010270E-01     1.0000000000000000E+00     0.0000000000000000E+00 
    7.5000000000034706E-01     1.0000000000000000E+00     0.0000000000000000E+00 
    7.1875000000056688E-01     1.0000000000000000E+00     0.0000000000000000E+00 
    6.8750000000078049E-01     1.0000000000000000E+00     0.0000000000000000E+00 
    6.5625000000097422E-01     1.0000000000000000E+00     0.0000000000000000E+00 
    6.2500000000121403E-01     1.0000000000000000E+00     0.0000000000000000E+00 
    5.9375000000151579E-01     1.0000000000000000E+00     0.0000000000000000E+00 
    5.6250000000164757E-01     1.0000000000000000E+00     0.0000000000000000E+00 
    5.3125000000182365E-01     1.0000000000000000E+00     0.0000000000000000E+00 
    5.0000000000205946E-01     1.0000000000000000E+00     0.0000000000000000E+00 
    4.6875000000194023E-01     1.0000000000000000E+00     0.0000000000000000E+00 
    4.3750000000182099E-01     1.0000000000000000E+00     0.0000000000000000E+00 
    4.0625000000169093E-01     1.0000000000000000E+00     0.0000000000000000E+00 
    3.7500000000156092E-01     1.0000000000000000E+00     0.0000000000000000E+00 
    3.4375000000143069E-01     1.0000000000000000E+00     0.0000000000000000E+00 
    3.1250000000130068E-01     1.0000000000000000E+00     0.0000000000000000E+00 
    2.8125000000117062E-01     1.0000000000000000E+00     0.0000000000000000E+00 
    2.5000000000104050E-01     1.0000000000000000E+00     0.0000000000000000E+00 
    2.1875000000091041E-01     1.0000000000000000E+00     0.0000000000000000E+00 
    1.8750000000078040E-01     1.0000000000000000E+00     0.0000000000000000E+00 
    1.5625000000065031E-01     1.0000000000000000E+00     0.0000000000000000E+00 
    1.2500000000052031E-01     1.0000000000000000E+00     0.0000000000000000E+00 
    9.3750000000390132E-02     1.0000000000000000E+00     0.0000000000000000E+00 
    6.2500000000260125E-02     1.0000000000000000E+00     0.0000000000000000E+00 
    3.1250000000130007E-02     1.0000000000000000E+00     0.0000000000000000E+00 
    0.0000000000000000E+00     9.6874999999986700E-01     0.0000000000000000E+00 
    0.0000000000000000E+00     9.3749999999973976E-01     0.0000000000000000E+00 
    0.0000000000000000E+00     9.0624999999967670E-01     0.0000000000000000E+00 
    0.0000000000000000E+00     8.7499999999950118E-01     0.0000000000000000E+00 
    0.0000000000000000E+00     8.4374999999971556E-01     0.0000000000000000E+00 
    0.0000000000000000E+00     8.1249999999991318E-01     0.0000000000000000E+00 
    0.0000000000000000E+00     7.8125000000010270E-01     0.0000000000000000E+00 
    0.0000000000000000E+00     7.5000000000034706E-01     0.0000000000000000E+00 
    0.0000000000000000E+00     7.1875000000056688E-01     0.0000000000000000E+00 
    0.0000000000000000E+00     6.8750000000078049E-01     0.0000000000000000E+00 
    0.0000000000000000E+00     6.5625000000097422E-01     0.0000000000000000E+00 
    0.0000000000000000E+00     6.2500000000121403E-01     0.0000000000000000E+00 
    0.0000000000000000E+00     5.9375000000151579E-01     0.0000000000000000E+00 
    0.0000000000000000E+00     5.6250000000164757E-01     0.0000000000000000E+00 
    0.0000000000000000E+00     5.3125000000182365E-01     0.0000000000000000E+00 
    0.0000000000000000E+00     5.0000000000205946E-01     0.0000000000000000E+00 
    0.0000000000000000E+00     4.6875000000194023E-01     0.0000000000000000E+00 
    0.0000000000000000E+00     4.3750000000182099E-01     0.0000000000000000E+00 
    0.0000000000000000E+00     4.0625000000169093E-01     0.0000000000000000E+00 
    0.0000000000000000E+00     3.7500000000156092E-01     0.0000000000000000E+00 
    0.0000000000000000E+00     3.4375000000143069E-01     0.0000000000000000E+00 
    0.0000000000000000E+00     3.1250000000130068E-01     0.0000000000000000E+00 
    0.0000000000000000E+00     2.8125000000117062E-01     0.0000000000000000E+00 
[...]
CELL_DATA 1024 
SCALARS Pressure float 1 
LOOKUP_TABLE default 

    3.5527005530959421E-01 
    3.5549159855000478E-01 
    3.5942026153286272E-01 
    3.6087605698479619E-01 
    3.6505750149736149E-01 
    3.6301716494196762E-01 
    3.6606841300095871E-01 
    3.6831178972141798E-01 
    3.7087786446849907E-01 
    3.6857537949229996E-01 
    3.7058033827490661E-01 
    3.7288474281893158E-01 
    3.7440967814728682E-01 
    3.7212589627207265E-01 
    3.7324767846007889E-01 
    3.7550334501780075E-01 
    3.7620183525532203E-01 
    3.7397474139071812E-01 
    3.7433133019753007E-01 
    3.7653288981614980E-01 
    3.7651939855745914E-01 
    3.7433850988340572E-01 
    3.7401543727690956E-01 
    3.7618151026751556E-01 
    3.7553799278431826E-01 
    3.7338032013942962E-01 
    3.7245114948345392E-01 
    3.7460716891029938E-01 
    3.7340760396257761E-01 
    3.7124627758030071E-01 
    3.6978489390804120E-01 
    3.7195864459339695E-01 
    3.7028086845346569E-01 
    3.6808743591623594E-01 
    3.6617595998109570E-01 
    3.6839648152654891E-01 
    3.6632968694453266E-01 
    3.6407449062757774E-01 
    3.6180936120523943E-01 
    3.6410704103918590E-01 
    3.6175780689519604E-01 
    3.5940955605103514E-01 
    3.5690706211566681E-01 
    3.5931431094077582E-01 
    3.5681230225538491E-01 
    3.5433723675659723E-01 
    3.5173919785885199E-01 
    3.5429130422712818E-01 
    3.5179492773180909E-01 
    3.4915624417675073E-01 
    3.4663632240103059E-01 
    3.4937106966330578E-01 
    3.4707181503646117E-01 
    3.4423259282561741E-01 
    3.4200427614481355E-01 
    3.4495260191695548E-01 
    3.4306953656770850E-01 
    3.4001844044267199E-01 
    3.3835513172782883E-01 
    3.4147188281993818E-01 
    3.4018079131118323E-01 
    3.3712471804397404E-01 
    3.3652890966100663E-01 
    3.3909867008409844E-01 
    3.5496290592054408E-01 
    3.5415443826308629E-01 
    3.5725552946164069E-01 
    3.5830309477396699E-01 
    3.6147378807692815E-01 
    3.6016915451116355E-01 
    3.6278487109634272E-01 
    3.6428469323981927E-01 
    3.6666866209206128E-01 
    3.6503866605555507E-01 
    3.6690327728872274E-01 
    3.6861556796642647E-01 
    3.7013694759609639E-01 
    3.6837295711148194E-01 
    3.6945294582377458E-01 
    3.7125098587949440E-01 
    3.7197692847838959E-01 
    3.7015364376402304E-01 
    3.7048775107944976E-01 
    3.7233336395604266E-01 
    3.7233797952557646E-01 
    3.7046901754993905E-01 
    3.7011180383428754E-01 
    3.7200782864169213E-01 
    3.7135974299287156E-01 
    3.6943103274024980E-01 
    3.6844232100202912E-01 
    3.7041075835132631E-01 
    3.6917851430959875E-01 
    3.6716219064728312E-01 
    3.6560831385846942E-01 
    3.6768162222048378E-01 
    3.6594000685410993E-01 
    3.6379977122818663E-01 
    3.6175731656835636E-01 
    3.6397523029379275E-01 
    3.6181080684509870E-01 
    3.5950364711881905E-01 
    3.5706368183361026E-01 
    3.5947251724020324E-01 
    3.5698873030812173E-01 
    3.5446485249190435E-01 
    3.5173741521829333E-01 
    3.5439074104868334E-01 
    3.5171313682781064E-01 
    3.4891479430386468E-01 
    3.4603397841924061E-01 
    3.4899420936954073E-01 
    3.4627644586163070E-01 
    3.4313600497013308E-01 
    3.4026659919411967E-01 
    3.4360716580851480E-01 
    3.4103945239346301E-01 
    3.3747709377608048E-01 
    3.3482586594312025E-01 
    3.3863372290184657E-01 
    3.3646075830750283E-01 
    3.3238071510563172E-01 
    3.3022283484528281E-01 
    3.3460813085035573E-01 
    3.3319437947481495E-01 
    3.2845295469408431E-01 
    3.2719818049486854E-01 
    3.3239897644193611E-01 
    3.5322211854180552E-01 
    3.5220606079849009E-01 
    3.5512743008964953E-01 
    3.5620845307143806E-01 
    3.5896772079529826E-01 
    3.5778883092828584E-01 
    3.6015658944662043E-01 
    3.6143989786060854E-01 
    3.6357862280120828E-01 
    3.6219946741265607E-01 
    3.6389487406464283E-01 
    3.6535638379682067E-01 
    3.6676085834064326E-01 
    3.6522956363312176E-01 
    3.6619800521073936E-01 
    3.6778987382500522E-01 
    3.6844748024192808E-01 
    3.6680033787782784E-01 
    3.6704067709670940E-01 
    3.6874143459499420E-01 
    3.6868176492239363E-01 
    3.6692593494961356E-01 
    3.6646508729060029E-01 
    3.6828003395555808E-01 
    3.6754902158075792E-01 
    3.6566876860015157E-01 
    3.6454908831805188E-01 
    3.6650264797305004E-01 
    3.6515603185576001E-01 
    3.6311959102628505E-01 
    3.6139530798194935E-01 
    3.6352562464303945E-01 
    3.6162938741181461E-01 
    3.5939286718058616E-01 
    3.5713064100096864E-01 
    3.5948699448376920E-01 
    3.5712005447901096E-01 
    3.5462892019737247E-01 
    3.5191010646480542E-01 
    3.5455234676002267E-01 
    3.5181007383342661E-01 
    3.4899892230805241E-01 
    3.4592263710030430E-01 
    3.4892213403438560E-01 
    3.4592042283493968E-01 
    3.4271131310230457E-01 
    3.3939807741379685E-01 
    3.4284017744275225E-01 
    3.3972038927543491E-01 
    3.3601942956451986E-01 
    3.3261559709478122E-01 
    3.3660432510980282E-01 
    3.3354022046089271E-01 
    3.2923094955301796E-01 
    3.2591446144045383E-01 
    3.3058223385321733E-01 
    3.2779174735892758E-01 
    3.2272014741430388E-01 
    3.1970720859887480E-01 
    3.2523896078622505E-01 
    3.2300414352191076E-01 
    3.1693920142120519E-01 
    3.1448072042813285E-01 
    3.2117612635351073E-01 
    3.5109920163946245E-01 
    3.4987338987064587E-01 
    3.5272197667187932E-01 
    3.5397827282842265E-01 
    3.5657292042234945E-01 
    3.5526777720540309E-01 
    3.5749705804095561E-01 
    3.5886271064680930E-01 
    3.6082653500397777E-01 
    3.5939493648402987E-01 
    3.6094809887912893E-01 
    3.6244701167248805E-01 
    3.6371218456960863E-01 
    3.6214635373775056E-01 
    3.6298313788490849E-01 
    3.6461547545707396E-01 
    3.6515488331872009E-01 
    3.6345538045660053E-01 
    3.6356309014683602E-01 
    3.6533204638010502E-01 
    3.6515144281667378E-01 
    3.6330889574869674E-01 
    3.6269765333850706E-01 
    3.6461980998463794E-01 
    3.6374577037180089E-01 
    3.6173615890524330E-01 
    3.6043296586297446E-01 
    3.6253962352285357E-01 
    3.6101326046947801E-01 
    3.5879829399400381E-01 
    3.5684400778784364E-01 
    3.5918016532915370E-01 
    3.5705547711380214E-01 
    3.5458365007042586E-01 
    3.5203251323661117E-01 
    3.5465609305872742E-01 
    3.5200080070638784E-01 
    3.4920773838182867E-01 
    3.4612843280457944E-01 
    3.4911043020008825E-01 
    3.4600802122392216E-01 
    3.4281579880860602E-01 
    3.3929326765723339E-01 
    3.4271900123054033E-01 
    3.3927137261447615E-01 
    3.3558663251648768E-01 
    3.3172417303805241E-01 
    3.3569590731531590E-01 
    3.3202634579064383E-01 
    3.2773676069930974E-01 
    3.2365792671890992E-01 
    3.2829959282293986E-01 
    3.2455588930863161E-01 
    3.1952385979845183E-01 
    3.1537327432398904E-01 
    3.2083890830310174E-01 
    3.1719565716892839E-01 
    3.1124704441608098E-01 
    3.0718743084619976E-01 
    3.1367593949482742E-01 
    3.1033091686678071E-01 
    3.0323664953368490E-01 
    2.9943449814938500E-01 
    3.0721005263579837E-01 
    3.4849029180797819E-01 
    3.4690636020339827E-01 
    3.4971299132889005E-01 
    3.5131547065315072E-01 
    3.5382347316650842E-01 
    3.5219064634270669E-01 
    3.5433086816233333E-01 
    3.5600402752765242E-01 
    3.5784594015887011E-01 
    3.5612459793865542E-01 
    3.5756313102176190E-01 
    3.5933870711547650E-01 
    3.6047367473581882E-01 
    3.5863892612452641E-01 
    3.5934613409759553E-01 
    3.6124464009500118E-01 
    3.6164800914486017E-01 
    3.5968085507060182E-01 
    3.5964119496857705E-01 
    3.6168269441096479E-01 
    3.6134990182225507E-01 
    3.5922721070243296E-01 
    3.5844080675060647E-01 
    3.6065290408327477E-01 
    3.5959685098204569E-01 
    3.5728563301425104E-01 
    3.5576700408694301E-01 
    3.5818863621726099E-01 
    3.5643682267937360E-01 
    3.5389185225097441E-01 
    3.5166871465027849E-01 
    3.5435161960894773E-01 
    3.5194490221446217E-01 
    3.4910775124682802E-01 
    3.4622078774263743E-01 
    3.4923026382143180E-01 
    3.4622309138002039E-01 
    3.4302137669091814E-01 
    3.3952486958471823E-01 
    3.4294065599869661E-01 
    3.3940221075412685E-01 
    3.3574849231811638E-01 
    3.3171141572188839E-01 
    3.3562908805611819E-01 
    3.3164478802285324E-01 
    3.2743481158621102E-01 
    3.2294188238402127E-01 
    3.2747504730131516E-01 
    3.2314787371275849E-01 
    3.1825784935185469E-01 
    3.1340987821841659E-01 
    3.1869352524342470E-01 
    3.1414440011931982E-01 
    3.0842691409559619E-01 
    3.0333938696515311E-01 
    3.0953478683735713E-01 
    3.0490039808374686E-01 
    2.9817873823713148E-01 
    2.9297671193216562E-01 
    3.0027758413579070E-01 
    2.9570210620625204E-01 
    2.8776436270219924E-01 
    2.8257077678996712E-01 
    2.9120738615202069E-01 
    3.4507526152295043E-01 
    3.4294912637560732E-01 
    3.4572947364156403E-01 
    3.4786712433471928E-01 
    3.5031998697934608E-01 
    3.4816212430773236E-01 
    3.5024001164927010E-01 
    3.5242633288376529E-01 
    3.5417829443176491E-01 
    3.5195587874278605E-01 
    3.5330264786996013E-01 
    3.5556823563175344E-01 
    3.5658930535168232E-01 
    3.5427380389132418E-01 
    3.5486371868824224E-01 
    3.5723585952722792E-01 
    3.5750372516043999E-01 
    3.5506788904233716E-01 
    3.5488308602319513E-01 
    3.5739032810659171E-01 
    3.5689472690740026E-01 
    3.5430743486407978E-01 
    3.5334044902283801E-01 
    3.5601759483808243E-01 
    3.5476118344957824E-01 
    3.5198304080511755E-01 
    3.5023752569766980E-01 
    3.5312928948165762E-01 
    3.5112723734817713E-01 
    3.4810763171434833E-01 
    3.4559851987407925E-01 
    3.4876188215870596E-01 
    3.4604163344902089E-01 
    3.4271681787765723E-01 
    3.3947066605865311E-01 
    3.4297649678183195E-01 
    3.3957812851642943E-01 
    3.3586977249119188E-01 
    3.3192547244144971E-01 
    3.3585989778254760E-01 
    3.3183694862930679E-01 
    3.2765078588813107E-01 
    3.2306046540667660E-01 
    3.2752625415905201E-01 
    3.2294665296348701E-01 
    3.1817102516620105E-01 
    3.1300074003656059E-01 
    3.1811885615156249E-01 
    3.1306541050048869E-01 
    3.0756960182079568E-01 
    3.0189921750963905E-01 
    3.0781059965929397E-01 
    3.0238026095424070E-01 
    2.9601263251038729E-01 
    2.8993406076647471E-01 
    2.9680149083301366E-01 
    2.9110220916645563E-01 
    2.8368850498471093E-01 
    2.7730125616786166E-01 
    2.8531055521364795E-01 
    2.7945410270660315E-01 
    2.7079727555074407E-01 
    2.6420048679534613E-01 
    2.7355891667254578E-01 
    3.4047921070967924E-01 
    3.3761624059179834E-01 
    3.4038253872047397E-01 
    3.4325106008485795E-01 
    3.4566762149870744E-01 
    3.4278698023147641E-01 
    3.4482262611152842E-01 
    3.4772198597901144E-01 
    3.4940713741437157E-01 
    3.4648245678527489E-01 
    3.4775955200567410E-01 
    3.5071620233114481E-01 
    3.5164272140717240E-01 
    3.4864729188851873E-01 
    3.4913955183122825E-01 
    3.5218089932363156E-01 
    3.5232580738631109E-01 
    3.4923087256039609E-01 
    3.4891659692996635E-01 
    3.5207353159063409E-01 
    3.5142127202189838E-01 
    3.4819297397265092E-01 
    3.4705723637326225E-01 
    3.5036740616708056E-01 
    3.4891153022666949E-01 
    3.4550765999114591E-01 
    3.4354361410543505E-01 
    3.4705449083226109E-01 
    3.4479841647377030E-01 
    3.4116560965788345E-01 
    3.3837535070089364E-01 
    3.4214675454903881E-01 
    3.3910431684848757E-01 
    3.3517579202144721E-01 
    3.3157120375379923E-01 
    3.3567733366325736E-01 
    3.3187351452720965E-01 
    3.2756724179383911E-01 
    3.2317102097247913E-01 
    3.2770211174981673E-01 
    3.2317398123417007E-01 
    3.1839118619143858E-01 
    3.1323797504397904E-01 
    3.1830163349582324E-01 
    3.1309926624640294E-01 
    3.0772326385184734E-01 
    3.0186058763148083E-01 
    3.0758276838714432E-01 
    3.0176968385919323E-01 
    2.9566512342449963E-01 
    2.8915362595341587E-01 
    2.9567912272134583E-01 
    2.8933160643980449E-01 
    2.8234430506104180E-01 
    2.7525663632973080E-01 
    2.8274883529276473E-01 
    2.7595336894994121E-01 
    2.6791110019016157E-01 
    2.6032885122055238E-01 
    2.6896821792448200E-01 
    2.6181635500398359E-01 
    2.5253132844228315E-01 
    2.4453982876608846E-01 
    2.5452017245623965E-01 
    3.3431058484709708E-01 
    3.3051232093256577E-01 
    3.3327652878022834E-01 
    3.3707430571426616E-01 
    3.3947062880951950E-01 
    3.3566888692444552E-01 
    3.3768203858163010E-01 
    3.4149245533474493E-01 
    3.4313259119983375E-01 
    3.3930848788684714E-01 
    3.4054071705673655E-01 
    3.4438388675438253E-01 
    3.4523939324947128E-01 
    3.4137131522314901E-01 
    3.4179310783670142E-01 
    3.4569251903083403E-01 
    3.4573717238706653E-01 
    3.4179927777876234E-01 
    3.4138347301339445E-01 
    3.4536788395074519E-01 
    3.4457990735301997E-01 
    3.4053989947507468E-01 
    3.3926340102985614E-01 
    3.4336930113692232E-01 
    3.4173299735213286E-01 
    3.3754953037255986E-01 
    3.3539461562483741E-01 
    3.3966886299842280E-01 
    3.3717576002451810E-01 
    3.3279582738459995E-01 
    3.2975125031058405E-01 
    3.3425360839586576E-01 
    3.3090345517751291E-01 
    3.2625996223516146E-01 
    3.2232212243825492E-01 
    3.2712755085633044E-01 
    3.2292943235431398E-01 
    3.1793906916628917E-01 
    3.1311342477214044E-01 
    3.1831401039350993E-01 
    3.1328765706857931E-01 
    3.0784920499690960E-01 
    3.0215192694391746E-01 
    3.0785828768447410E-01 
    3.0203542919178755E-01 
    2.9602870829978062E-01 
    2.8948834852133926E-01 
    2.9583026604433998E-01 
    2.8925565324714070E-01 
    2.8254138133212514E-01 
    2.7520008737360230E-01 
    2.8232608608313320E-01 
    2.7505761689229352E-01 
    2.6747845671501669E-01 
    2.5939209357429377E-01 
    2.6746771171544675E-01 
    2.5957504389328168E-01 
    2.5095806024950373E-01 
    2.4219466368140882E-01 
    2.5139922786883190E-01 
    2.4296050410697204E-01 
    2.3312119544607077E-01 
    2.2375764291762509E-01 
    2.3427939427243058E-01 
    3.2617123805866882E-01 
    3.2123679799312788E-01 
    3.2401173944087225E-01 
    3.2893913074579645E-01 
    3.3133191048614785E-01 
    3.2640962007807167E-01 
    3.2842232988628217E-01 
    3.3334188118432867E-01 
    3.3496114306576574E-01 
    3.3004147566156539E-01 
    3.3125848590927642E-01 
    3.3618169905636525E-01 
    3.3699556748579362E-01 
    3.3206471598727860E-01 
    3.3245154728561999E-01 
    3.3739489328249245E-01 
    3.3737205178876306E-01 
    3.3241047681849750E-01 
    3.3193319618352424E-01 
    3.3691974205159897E-01 
    3.3603106920762221E-01 
    3.3101166103860769E-01 
    3.2963815388949891E-01 
    3.3469961786245178E-01 
    3.3291951991769081E-01 
    3.2780534404456285E-01 
    3.2550634913418741E-01 
    3.3068552109317156E-01 
    3.2799305052868866E-01 
    3.2273480270161459E-01 
    3.1948493213730833E-01 
    3.2483829747272763E-01 
    3.2121829830435017E-01 
    3.1575165070826289E-01 
    3.1153066664094003E-01 
    3.1713103607100240E-01 
    3.1257555339084231E-01 
    3.0681861111923658E-01 
    3.0161318558559935E-01 
    3.0755207795554845E-01 
    3.0206215795821484E-01 
    2.9591332679473142E-01 
    2.8971938559450194E-01 
    2.9610880256493738E-01 
    2.8969662012282027E-01 
    2.8303331240215390E-01 
    2.7585883896304442E-01 
    2.8283194434870329E-01 
    2.7552293663701566E-01 
    2.6820164262317076E-01 
    2.6006947672818803E-01 
    2.6777965141045812E-01 
    2.5961405179680630E-01 
    2.5147224990209316E-01 
    2.4242203902302914E-01 
    2.5103996551218349E-01 
    2.4207297602986699E-01 
    2.3293302660005627E-01 
    2.2302136294291905E-01 
    2.3273025161974586E-01 
    2.2303032341680062E-01 
    2.1270496538334741E-01 
    2.0200327742369645E-01 
    2.1299283118263609E-01 
    3.1565806618755149E-01 
    3.0938361860891966E-01 
    3.1218355100462047E-01 
    3.1844361386989173E-01 
    3.2085161654579508E-01 
    3.1460708621792000E-01 
    3.1664504562092416E-01 
    3.2287347384570297E-01 
    3.2450021221220843E-01 
    3.1828778090321241E-01 
    3.1952530608450386E-01 
    3.2572259759715072E-01 
    3.2653124040257109E-01 
    3.2034740958255425E-01 
    3.2074374141840989E-01 
    3.2691668714765720E-01 
    3.2686949736819249E-01 
    3.2070387701623920E-01 
    3.2021736259864908E-01 
    3.2638030720150235E-01 
    3.2543988297909765E-01 
    3.1927374859535912E-01 
    3.1786261768311419E-01 
    3.2403916919204295E-01 
    3.2216933568742406E-01 
    3.1597361376282418E-01 
    3.1359647777571459E-01 
    3.1982182911226348E-01 
    3.1698843357860590E-01 
    3.1072109595398117E-01 
    3.0733756593382544E-01 
    3.1366134534448764E-01 
    3.0983326599418104E-01 
    3.0343628607865525E-01 
    2.9900807325207557E-01 
    3.0549751810673237E-01 
    3.0064818662052645E-01 
    2.9404431396787273E-01 
    2.8853715308250233E-01 
    2.9528028787922855E-01 
    2.8938996648820242E-01 
    2.8247972266341703E-01 
    2.7586641097759873E-01 
    2.8297471742004210E-01 
    2.7603362713867025E-01 
    2.6869316730148052E-01 
    2.6095783217766533E-01 
    2.6856762288361791E-01 
    2.6057971401177871E-01 
    2.5266047491615917E-01 
    2.4380371135857584E-01 
    2.5207520427978602E-01 
    2.4306185064711575E-01 
    2.3439296712761673E-01 
    2.2443664808383312E-01 
    2.3354994462405212E-01 
    2.2355229846159666E-01 
    2.1394618481578700E-01 
    2.0293593537774046E-01 
    2.1308413159650857E-01 
    2.0216287110036554E-01 
    1.9142296001114939E-01 
    1.7942671546551234E-01 
    1.9080789800262635E-01 
    3.0236142429428420E-01 
    2.9453869753823464E-01 
    2.9737979929900182E-01 
    3.0517977407417429E-01 
    3.0762469724023750E-01 
    2.9985248762921668E-01 
    3.0194603978222928E-01 
    3.0968632369092430E-01 
    3.1135421589604645E-01 
    3.0364907636756577E-01 
    3.0494978849299598E-01 
    3.1261753647282875E-01 
    3.1346517529759399E-01 
    3.0583608790277139E-01 
    3.0629568447303784E-01 
    3.1388583331527070E-01 
    3.1386806991647181E-01 
    3.0631610885877514E-01 
    3.0588470051468841E-01 
    3.1340032457438766E-01 
    3.1247092366294033E-01 
    3.0498857849543526E-01 
    3.0361460826818526E-01 
    3.1106808205681785E-01 
    3.0917990753046465E-01 
    3.0174937417415698E-01 
    2.9937916480854093E-01 
    3.0679441474585578E-01 
    3.0389955493984178E-01 
    2.9648997746564570E-01 
    2.9306754769714960E-01 
    3.0048326726042790E-01 
    2.9653355792565084E-01 
    2.8909741068861194E-01 
    2.8456500231368215E-01 
    2.9203861380387003E-01 
    2.8698695740134234E-01 
    2.7945580910321827E-01 
    2.7375557761265612E-01 
    2.8136765026831351E-01 
    2.7517055104796484E-01 
    2.6745059425297613E-01 
    2.6052804574819810E-01 
    2.6838663218202313E-01 
    2.6100835488919710E-01 
    2.5297646679271962E-01 
    2.4478627361500460E-01 
    2.5303009464155890E-01 
    2.4444859842646952E-01 
    2.3595036826749166E-01 
    2.2646477738290893E-01 
    2.3526344087799214E-01 
    2.2547743090340566E-01 
    2.1632926177234796E-01 
    2.0554780500493788E-01 
    2.1509690847525534E-01 
    2.0413187073226657E-01 
    1.9412887260276152E-01 
    1.8208534894138448E-01 
    1.9259588690024743E-01 
    1.8050580831021074E-01 
    1.6943412732979249E-01 
    1.5619545173180147E-01 
    1.6788134485235995E-01 
    2.8586170477657641E-01 
    2.7627549595762019E-01 
    2.7917676381857831E-01 
    2.8873027301321852E-01 
    2.9123774525141910E-01 
    2.8172688096657456E-01 
    2.8391251226501257E-01 