# vtk DataFile Version 2.0
Pressure Field Data 
ASCII 
DATASET UNSTRUCTURED_GRID 

POINTS 1089 float 

    0.0000000000000000E+00     0.0000000000000000E+00     0.0000000000000000E+00 
    1.0000000000000000E+00     0.0000000000000000E+00     0.0000000000000000E+00 
    1.0000000000000000E+00     1.0000000000000000E+00     0.0000000000000000E+00 
    0.0000000000000000E+00     1.0000000000000000E+00     0.0000000000000000E+00 
    3.1249999999941821E-02     0.0000000000000000E+00     0.0000000000000000E+00 
    6.2499999999872928E-02     0.0000000000000000E+00     0.0000000000000000E+00 
    9.3749999999823030E-02     0.0000000000000000E+00     0.0000000000000000E+00 
    1.2499999999977310E-01     0.0000000000000000E+00     0.0000000000000000E+00 
    1.5624999999968331E-01     0.0000000000000000E+00     0.0000000000000000E+00 
    1.8749999999959341E-01     0.0000000000000000E+00     0.0000000000000000E+00 
    2.1874999999950220E-01     0.0000000000000000E+00     0.0000000000000000E+00 
    2.4999999999941089E-01     0.0000000000000000E+00     0.0000000000000000E+00 
    2.8124999999931971E-01     0.0000000000000000E+00     0.0000000000000000E+00 
    3.1249999999922851E-01     0.0000000000000000E+00     0.0000000000000000E+00 
    3.4374999999913730E-01     0.0000000000000000E+00     0.0000000000000000E+00 
    3.7499999999904610E-01     0.0000000000000000E+00     0.0000000000000000E+00 
    4.0624999999895478E-01     0.0000000000000000E+00     0.0000000000000000E+00 
    4.3749999999886358E-01     0.0000000000000000E+00     0.0000000000000000E+00 
    4.6874999999877792E-01     0.0000000000000000E+00     0.0000000000000000E+00 
    4.9999999999869210E-01     0.0000000000000000E+00     0.0000000000000000E+00 
    5.3124999999876910E-01     0.0000000000000000E+00     0.0000000000000000E+00 
    5.6249999999884603E-01     0.0000000000000000E+00     0.0000000000000000E+00 
    5.9374999999892841E-01     0.0000000000000000E+00     0.0000000000000000E+00 
    6.2499999999901090E-01     0.0000000000000000E+00     0.0000000000000000E+00 
    6.5624999999909328E-01     0.0000000000000000E+00     0.0000000000000000E+00 
    6.8749999999917577E-01     0.0000000000000000E+00     0.0000000000000000E+00 
    7.1874999999925815E-01     0.0000000000000000E+00     0.0000000000000000E+00 
    7.4999999999934064E-01     0.0000000000000000E+00     0.0000000000000000E+00 
    7.8124999999942302E-01     0.0000000000000000E+00     0.0000000000000000E+00 
    8.1249999999950551E-01     0.0000000000000000E+00     0.0000000000000000E+00 
    8.4374999999958789E-01     0.0000000000000000E+00     0.0000000000000000E+00 
    8.7499999999967026E-01     0.0000000000000000E+00     0.0000000000000000E+00 
    9.0624999999975264E-01     0.0000000000000000E+00     0.0000000000000000E+00 
    9.3749999999983513E-01     0.0000000000000000E+00     0.0000000000000000E+00 
    9.6874999999991751E-01     0.0000000000000000E+00     0.0000000000000000E+00 
    1.0000000000000000E+00     3.1249999999941821E-02     0.0000000000000000E+00 
    1.0000000000000000E+00     6.2499999999872928E-02     0.0000000000000000E+00 
    1.0000000000000000E+00     9.3749999999823030E-02     0.0000000000000000E+00 
    1.0000000000000000E+00     1.2499999999977310E-01     0.0000000000000000E+00 
    1.0000000000000000E+00     1.5624999999968331E-01     0.0000000000000000E+00 
    1.0000000000000000E+00     1.8749999999959341E-01     0.0000000000000000E+00 
    1.0000000000000000E+00     2.1874999999950220E-01     0.0000000000000000E+00 
    1.0000000000000000E+00     2.4999999999941089E-01     0.0000000000000000E+00 
    1.0000000000000000E+00     2.8124999999931971E-01     0.0000000000000000E+00 
    1.0000000000000000E+00     3.1249999999922851E-01     0.0000000000000000E+00 
    1.0000000000000000E+00     3.4374999999913730E-01     0.0000000000000000E+00 
    1.0000000000000000E+00     3.7499999999904610E-01     0.0000000000000000E+00 
    1.0000000000000000E+00     4.0624999999895478E-01     0.0000000000000000E+00 
    1.0000000000000000E+00     4.3749999999886358E-01     0.0000000000000000E+00 
    1.0000000000000000E+00     4.6874999999877792E-01     0.0000000000000000E+00 
    1.0000000000000000E+00     4.9999999999869210E-01     0.0000000000000000E+00 
    1.0000000000000000E+00     5.3124999999876910E-01     0.0000000000000000E+00 
    1.0000000000000000E+00     5.6249999999884603E-01     0.0000000000000000E+00 
    1.0000000000000000E+00     5.9374999999892841E-01     0.0000000000000000E+00 
    1.0000000000000000E+00     6.2499999999901090E-01     0.0000000000000000E+00 
    1.0000000000000000E+00     6.5624999999909328E-01     0.0000000000000000E+00 
    1.0000000000000000E+00     6.8749999999917577E-01     0.0000000000000000E+00 
    1.0000000000000000E+00     7.1874999999925815E-01     0.0000000000000000E+00 
    1.0000000000000000E+00     7.4999999999934064E-01     0.0000000000000000E+00 
    1.0000000000000000E+00     7.8124999999942302E-01     0.0000000000000000E+00 
    1.0000000000000000E+00     8.1249999999950551E-01     0.0000000000000000E+00 
    1.0000000000000000E+00     8.4374999999958789E-01     0.0000000000000000E+00 
    1.0000000000000000E+00     8.7499999999967026E-01     0.0000000000000000E+00 
    1.0000000000000000E+00     9.0624999999975264E-01     0.0000000000000000E+00 
    1.0000000000000000E+00     9.3749999999983513E-01     0.0000000000000000E+00 
    1.0000000000000000E+00     9.6874999999991751E-01     0.0000000000000000E+00 
    9.6874999999986700E-01     1.0000000000000000E+00     0.0000000000000000E+00 
    9.3749999999973976E-01     1.0000000000000000E+00     0.0000000000000000E+00 
    9.0624999999967670E-01     1.0000000000000000E+00     0.0000000000000000E+00 
    8.7499999999950118E-01     1.0000000000000000E+00     0.0000000000000000E+00 
    8.4374999999971556E-01     1.0000000000000000E+00     0.0000000000000000E+00 
    8.1249999999991318E-01     1.0000000000000000E+00     0.0000000000000000E+00 
    7.8125000000010270E-01     1.0000000000000000E+00     0.0000000000000000E+00 
    7.5000000000034706E-01     1.0000000000000000E+00     0.0000000000000000E+00 
    7.1875000000056688E-01     1.0000000000000000E+00     0.0000000000000000E+00 
    6.8750000000078049E-01     1.0000000000000000E+00     0.0000000000000000E+00 
    6.5625000000097422E-01     1.0000000000000000E+00     0.0000000000000000E+00 
    6.2500000000121403E-01     1.0000000000000000E+00     0.0000000000000000E+00 
    5.9375000000151579E-01     1.0000000000000000E+00     0.0000000000000000E+00 
    5.6250000000164757E-01     1.0000000000000000E+00     0.0000000000000000E+00 
    5.3125000000182365E-01     1.0000000000000000E+00     0.0000000000000000E+00 
    5.0000000000205946E-01     1.0000000000000000E+00     0.0000000000000000E+00 
    4.6875000000194023E-01     1.0000000000000000E+00     0.0000000000000000E+00 
    4.3750000000182099E-01     1.0000000000000000E+00     0.0000000000000000E+00 
    4.0625000000169093E-01     1.0000000000000000E+00     0.0000000000000000E+00 
    3.7500000000156092E-01     1.0000000000000000E+00     0.0000000000000000E+00 
    3.4375000000143069E-01     1.0000000000000000E+00     0.0000000000000000E+00 
    3.1250000000130068E-01     1.0000000000000000E+00     0.0000000000000000E+00 
    2.8125000000117062E-01     1.0000000000000000E+00     0.0000000000000000E+00 
    2.5000000000104050E-01     1.0000000000000000E+00     0.0000000000000000E+00 
    2.1875000000091041E-01     1.0000000000000000E+00     0.0000000000000000E+00 
    1.8750000000078040E-01     1.0000000000000000E+00     0.0000000000000000E+00 
    1.5625000000065031E-01     1.0000000000000000E+00     0.0000000000000000E+00 
    1.2500000000052031E-01     1.0000000000000000E+00     0.0000000000000000E+00 
    9.3750000000390132E-02     1.0000000000000000E+00     0.0000000000000000E+00 
    6.2500000000260125E-02     1.0000000000000000E+00     0.0000000000000000E+00 
    3.1250000000130007E-02     1.0000000000000000E+00     0.0000000000000000E+00 
    0.0000000000000000E+00     9.6874999999986700E-01     0.0000000000000000E+00 
    0.0000000000000000E+00     9.3749999999973976E-01     0.0000000000000000E+00 
    0.0000000000000000E+00     9.0624999999967670E-01     0.0000000000000000E+00 
    0.0000000000000000E+00     8.7499999999950118E-01     0.0000000000000000E+00 
    0.0000000000000000E+00     8.4374999999971556E-01     0.0000000000000000E+00 
    0.0000000000000000E+00     8.1249999999991318E-01     0.0000000000000000E+00 
    0.0000000000000000E+00     7.8125000000010270E-01     0.0000000000000000E+00 
    0.0000000000000000E+00     7.5000000000034706E-01     0.0000000000000000E+00 
    0.0000000000000000E+00     7.1875000000056688E-01     0.0000000000000000E+00 
    0.0000000000000000E+00     6.8750000000078049E-01     0.0000000000000000E+00 
    0.0000000000000000E+00     6.5625000000097422E-01     0.0000000000000000E+00 
    0.0000000000000000E+00     6.2500000000121403E-01     0.0000000000000000E+00 
    0.0000000000000000E+00     5.9375000000151579E-01     0.0000000000000000E+00 
    0.0000000000000000E+00     5.6250000000164757E-01     0.0000000000000000E+00 
    0.0000000000000000E+00     5.3125000000182365E-01     0.0000000000000000E+00 
    0.0000000000000000E+00     5.0000000000205946E-01     0.0000000000000000E+00 
    0.0000000000000000E+00     4.6875000000194023E-01     0.0000000000000000E+00 
    0.0000000000000000E+00     4.3750000000182099E-01     0.0000000000000000E+00 
    0.0000000000000000E+00     4.0625000000169093E-01     0.0000000000000000E+00 
    0.0000000000000000E+00     3.7500000000156092E-01     0.0000000000000000E+00 
    0.0000000000000000E+00     3.4375000000143069E-01     0.0000000000000000E+00 
    0.0000000000000000E+00     3.1250000000130068E-01     0.0000000000000000E+00 
    0.0000000000000000E+00     2.8125000000117062E-01     0.0000000000000000E+00 
[...]
CELL_DATA 1024 
SCALARS Pressure float 1 
LOOKUP_TABLE default 

   -6.7937609990122638E-01 
   -6.7403421313921175E-01 
   -6.6704535543614063E-01 
   -6.6615198632971606E-01 
   -6.5680164414773523E-01 
   -6.6006496519075530E-01 
   -6.5398316086241748E-01 
   -6.4973397144398071E-01 
   -6.4419403855112933E-01 
   -6.4888191779522675E-01 
   -6.4467024174874443E-01 
   -6.3978135304412975E-01 
   -6.3626179266113159E-01 
   -6.4123985019194951E-01 
   -6.3849811767906028E-01 
   -6.3348667576286066E-01 
   -6.3135457721596622E-01 
   -6.3637075784827002E-01 
   -6.3479817497918622E-01 
   -6.2979175759683848E-01 
   -6.2874138098942678E-01 
   -6.3373140153439489E-01 
   -6.3312882856228148E-01 
   -6.2815719165340078E-01 
   -6.2799959756784451E-01 
   -6.3295377182847057E-01 
   -6.3317268736818955E-01 
   -6.2823312320897895E-01 
   -6.2882467640916007E-01 
   -6.3375385124132388E-01 
   -6.3466636127190534E-01 
   -6.2974231642656264E-01 
   -6.3095433997160622E-01 
   -6.3587936094889630E-01 
   -6.3736141549300751E-01 
   -6.3242857286820853E-01 
   -6.3413179651572338E-01 
   -6.3907999157458140E-01 
   -6.4100100640767799E-01 
   -6.3602926327906573E-01 
   -6.3808427106961552E-01 
   -6.4308842161795077E-01 
   -6.4530386384873939E-01 
   -6.4025777923456051E-01 
   -6.4250805912178244E-01 
   -6.4760625878884759E-01 
   -6.4995146820136696E-01 
   -6.4479038770610675E-01 
   -6.4705681936040649E-01 
   -6.5229192068720132E-01 
   -6.5457621924757936E-01 
   -6.4925612585415671E-01 
   -6.5133411887888004E-01 
   -6.5674867337985987E-01 
   -6.5874856370429369E-01 
   -6.5323486786043172E-01 
   -6.5490408974061787E-01 
   -6.6050843194287057E-01 
   -6.6194879899462444E-01 
   -6.5629808333057382E-01 
   -6.5740823002497817E-01 
   -6.6295973850348755E-01 
   -6.6333567176373975E-01 
   -6.5836160355336948E-01 
   -6.7238206174853032E-01 
   -6.7243904463448045E-01 
   -6.6848833427858612E-01 
   -6.6756945593949901E-01 
   -6.6226603340744283E-01 
   -6.6417677236157702E-01 
   -6.5992512574466788E-01 
   -6.5721509237131936E-01 
   -6.5271682621475668E-01 
   -6.5599827042738212E-01 
   -6.5252958533882810E-01 
   -6.4885691037407311E-01 
   -6.4563410065065441E-01 
   -6.4957232542113774E-01 
   -6.4713718722008695E-01 
   -6.4301675050451035E-01 
   -6.4096533594358973E-01 
   -6.4521407116804153E-01 
   -6.4378342342897377E-01 
   -6.3944056706855135E-01 
   -6.3840575182901860E-01 
   -6.4282174910080836E-01 
   -6.4230410023691786E-01 
   -6.3782699677916099E-01 
   -6.3767267432637831E-01 
   -6.4220505753969837E-01 
   -6.4249898615594769E-01 
   -6.3791270692656510E-01 
   -6.3851786486794171E-01 
   -6.4315995357509559E-01 
   -6.4416149972675607E-01 
   -6.3945913731482074E-01 
   -6.4070718359493617E-01 
   -6.4547634882535065E-01 
   -6.4707610420808814E-01 
   -6.4223185380079773E-01 
   -6.4400176308958323E-01 
   -6.4893094170193888E-01 
   -6.5100930564698867E-01 
   -6.4598390375558412E-01 
   -6.4814328013273315E-01 
   -6.5327760389924650E-01 
   -6.5569989360147296E-01 
   -6.5044255133046192E-01 
   -6.5284166549986633E-01 
   -6.5823754305675608E-01 
   -6.6084884588040893E-01 
   -6.5529746180249249E-01 
   -6.5776320325684290E-01 
   -6.6348854526714196E-01 
   -6.6610719196302637E-01 
   -6.6018796380524569E-01 
   -6.6251570563268980E-01 
   -6.6865019122985303E-01 
   -6.7105626874276103E-01 
   -6.6468366498468223E-01 
   -6.6661914112763310E-01 
   -6.7325486808698831E-01 
   -6.7516170974065504E-01 
   -6.6823254115733677E-01 
   -6.6940183056568725E-01 
   -6.7667173693901994E-01 
   -6.7765066408817509E-01 
   -6.6993917725022600E-01 
   -6.7340996368373573E-01 
   -6.7494792212217281E-01 
   -6.7159042510586719E-01 
   -6.6985019688777314E-01 
   -6.6611601428085687E-01 
   -6.6820439653490649E-01 
   -6.6490720408859572E-01 
   -6.6242868478967598E-01 
   -6.5897283733646206E-01 
   -6.6181827681672067E-01 
   -6.5903241014532388E-01 
   -6.5587049149343035E-01 
   -6.5319034260776443E-01 
   -6.5661417775968434E-01 
   -6.5460209405610670E-01 
   -6.5096437917328343E-01 
   -6.4920176831255827E-01 
   -6.5301525978147201E-01 
   -6.5185934397996348E-01 
   -6.4789824223804149E-01 
   -6.4704182534968402E-01 
   -6.5113104194292881E-01 
   -6.5082108924558413E-01 
   -6.4661611001269126E-01 
   -6.4660202780133014E-01 
   -6.5091617417403791E-01 
   -6.5140008787078196E-01 
   -6.4697873966173403E-01 
   -6.4772402356139347E-01 
   -6.5225437421257393E-01 
   -6.5345866056423696E-01 
   -6.4881438108117573E-01 
   -6.5022498783007987E-01 
   -6.5499078881267681E-01 
   -6.5682682149616822E-01 
   -6.5192955893405025E-01 
   -6.5390016615629043E-01 
   -6.5894097053481515E-01 
   -6.6130547482582924E-01 
   -6.5610702666320619E-01 
   -6.5851827052599154E-01 
   -6.6389044389653074E-01 
   -6.6666367271988280E-01 
   -6.6109968651781359E-01 
   -6.6381443820221009E-01 
   -6.6959042846371020E-01 
   -6.7263320263373028E-01 
   -6.6662273363778046E-01 
   -6.6948141897370639E-01 
   -6.7575141609195999E-01 
   -6.7890105859989036E-01 
   -6.7234344694299109E-01 
   -6.7515714202163790E-01 
   -6.8203424397582912E-01 
   -6.8509867714614858E-01 
   -6.7786515102222944E-01 
   -6.8040295896899750E-01 
   -6.8803709552909242E-01 
   -6.9078693560133164E-01 
   -6.8269697609678004E-01 
   -6.8466279105178607E-01 
   -6.9328092880922931E-01 
   -6.9545023374187775E-01 
   -6.8620606153567831E-01 
   -6.7689527288252560E-01 
   -6.7918309130606336E-01 
   -6.7601820196409157E-01 
   -6.7365531614719221E-01 
   -6.7049065426794985E-01 
   -6.7300237502537241E-01 
   -6.7017397941059220E-01 
   -6.6746633167798330E-01 
   -6.6465849864203153E-01 
   -6.6758234465088795E-01 
   -6.6527673235344353E-01 
   -6.6213618785394635E-01 
   -6.5995309317630979E-01 
   -6.6329941639680712E-01 
   -6.6168279236573679E-01 
   -6.5814629941325198E-01 
   -6.5673835910509282E-01 
   -6.6044915883688216E-01 
   -6.5961183088352981E-01 
   -6.5574034666323167E-01 
   -6.5515472903604310E-01 
   -6.5917668138244301E-01 
   -6.5914362821391093E-01 
   -6.5497764786775103E-01 
   -6.5520057348865279E-01 
   -6.5950786851156973E-01 
   -6.6026081532738090E-01 
   -6.5581142951600768E-01 
   -6.5679531682733250E-01 
   -6.6139076628158355E-01 
   -6.6288335089235761E-01 
   -6.5813495118211829E-01 
   -6.5981090256608876E-01 
   -6.6472181352812210E-01 
   -6.6688717238037420E-01 
   -6.6180170023976059E-01 
   -6.6408384773441620E-01 
   -6.6935829219939713E-01 
   -6.7211189664510274E-01 
   -6.6663177744840263E-01 
   -6.6941776405179432E-01 
   -6.7512254008078854E-01 
   -6.7836255345984942E-01 
   -6.7241180885031193E-01 
   -6.7558150148958351E-01 
   -6.8180197551040644E-01 
   -6.8540847920783488E-01 
   -6.7889186258619127E-01 
   -6.8230516889769166E-01 
   -6.8914730474743435E-01 
   -6.9298121619843434E-01 
   -6.8578076588333703E-01 
   -6.8927488352255983E-01 
   -6.9687051251624110E-01 
   -7.0077315064084078E-01 
   -6.9274050162248646E-01 
   -6.9612737887985765E-01 
   -7.0464508650089186E-01 
   -7.0844101418334782E-01 
   -6.9938249683052101E-01 
   -7.0245140455445920E-01 
   -7.1211577829694839E-01 
   -7.1562678549576464E-01 
   -7.0528125616437221E-01 
   -6.8178807180577317E-01 
   -6.8471224628278693E-01 
   -6.8163587052894981E-01 
   -6.7867465510875324E-01 
   -6.7576412070120628E-01 
   -6.7880300760836798E-01 
   -6.7623041739558043E-01 
   -6.7308083016265230E-01 
   -6.7065783273689761E-01 
   -6.7394127382633129E-01 
   -6.7196144860659723E-01 
   -6.6853045041257941E-01 
   -6.6673130566858607E-01 
   -6.7031615561525637E-01 
   -6.6902758202086277E-01 
   -6.6528743454356176E-01 
   -6.6421916778660495E-01 
   -6.6811358028534151E-01 
   -6.6758719626950347E-01 
   -6.6354016430459095E-01 
   -6.6325803460212496E-01 
   -6.6745674232053553E-01 
   -6.6772615062777696E-01 
   -6.6337516793128237E-01 
   -6.6388954246340171E-01 
   -6.6839543286191316E-01 
   -6.6946113222088233E-01 
   -6.6479541657944885E-01 
   -6.6608387032572736E-01 
   -6.7091671651121509E-01 
   -6.7275289144829142E-01 
   -6.6774320244982666E-01 
   -6.6975920426037994E-01 
   -6.7495783433390777E-01 
   -6.7751735797412949E-01 
   -6.7211533555413649E-01 
   -6.7479282681067776E-01 
   -6.8041501876905985E-01 
   -6.8363218389144575E-01 
   -6.7777072872367672E-01 
   -6.8102592680971663E-01 
   -6.8714807213782203E-01 
   -6.9093978243774146E-01 
   -6.8453313615061551E-01 
   -6.8826488971714272E-01 
   -6.9498232380611424E-01 
   -6.9924866127533281E-01 
   -6.9219153377350040E-01 
   -6.9628124604759922E-01 
   -7.0370979456192140E-01 
   -7.0833489067823130E-01 
   -7.0050009838936622E-01 
   -7.0481219646085247E-01 
   -7.1309149890774870E-01 
   -7.1794588703037610E-01 
   -7.0917994768945580E-01 
   -7.1356453600398917E-01 
   -7.2286355012885306E-01 
   -7.2780995302820672E-01 
   -7.1792671446778855E-01 
   -7.2222805079035035E-01 
   -7.3275156303871958E-01 
   -7.3765718932036739E-01 
   -7.2643273356219151E-01 
   -6.8797262962873884E-01 
   -6.9159556921348619E-01 
   -6.8856684795485934E-01 
   -6.8492362071192514E-01 
   -6.8214983564426068E-01 
   -6.8583881320647244E-01 
   -6.8342158797241581E-01 
   -6.7966379475285010E-01 
   -6.7748264654797352E-01 
   -6.8132863297583912E-01 
   -6.7957542719179198E-01 
   -6.7562598365430759E-01 
   -6.7411362684280540E-01 
   -6.7817800650463056E-01 
   -6.7715165245009634E-01 
   -6.7296383270377302E-01 
   -6.7219209395216184E-01 
   -6.7650989528720840E-01 
   -6.7626386417319706E-01 
   -6.7181049629765666E-01 
   -6.7182749898239469E-01 
   -6.7642194109808618E-01 
   -6.7698964007002016E-01 
   -6.7224798800989960E-01 
   -6.7307347489517033E-01 
   -6.7796963115808029E-01 
   -6.7936184263637411E-01 
   -6.7430235007034445E-01 
   -6.7593013461620854E-01 
   -6.8116359322324171E-01 
   -6.8336972404997609E-01 
   -6.7794970049600212E-01 
   -6.8035144761210875E-01 
   -6.8597271411623806E-01 
   -6.8896277323554633E-01 
   -6.8312343728805636E-01 
   -6.8625148825981763E-01 
   -6.9232791344438749E-01 
   -6.9605400440211707E-01 
   -6.8971924470622148E-01 
   -6.9350822758728470E-01 
   -7.0012482124724107E-01 
   -7.0452209532622145E-01 
   -6.9759788150809265E-01 
   -7.0196563010745439E-01 
   -7.0922557962077781E-01 
   -7.1421314187078344E-01 
   -7.0658695404402805E-01 
   -7.1143550737934547E-01 
   -7.1946089950825354E-01 
   -7.2494341165634069E-01 
   -7.1648329085563867E-01 
   -7.2170090430072342E-01 
   -7.3063394447036367E-01 
   -7.3650482651694626E-01 
   -7.2705790486103616E-01 
   -7.3252330119897568E-01 
   -7.4252790946070046E-01 
   -7.4867514386789258E-01 
   -7.3806621274663586E-01 
   -7.4365671054373550E-01 
   -7.5491926703374790E-01 
   -7.6123457581579101E-01 
   -7.4926682248862775E-01 
   -6.9561349058880084E-01 
   -7.0006294279950143E-01 
   -6.9705874915447796E-01 
   -6.9259943453552231E-01 
   -6.8990695464259677E-01 
   -6.9439350243062647E-01 
   -6.9207528584649969E-01 
   -6.8754483520363496E-01 
   -6.8552429692249228E-01 
   -6.9011400387558464E-01 
   -6.8852084532017055E-01 
   -6.8385817343525745E-01 
   -6.8255993294329720E-01 
   -6.8730761382948380E-01 
   -6.8648603953248311E-01 
   -6.8164273040734247E-01 
   -6.8111861446353261E-01 
   -6.8606716007329960E-01 
   -6.8606082094231602E-01 
   -6.8099794215046228E-01 
   -6.8128899912132779E-01 
   -6.8647530935502199E-01 
   -6.8731711077690483E-01 
   -6.8199779082631606E-01 
   -6.8312795829479311E-01 
   -6.8859076382880990E-01 
   -6.9029878541295975E-01 
   -6.8468077364127611E-01 
   -6.8665517868641868E-01 
   -6.9244164010238007E-01 
   -6.9501773313686765E-01 
   -6.8904784045075185E-01 
   -6.9185320713128784E-01 
   -6.9802341267946244E-01 
   -7.0145297311256527E-01 
   -6.9506355639767103E-01 
   -6.9866903423476800E-01 
   -7.0529865655351709E-01 
   -7.0955065429849340E-01 
   -7.0265768732840195E-01 
   -7.0701549548672149E-01 
   -7.1419711359095761E-01 
   -7.1922415801817774E-01 
   -7.1172641312994389E-01 
   -7.1677243069049590E-01 
   -7.2461593197534746E-01 
   -7.3035468092063238E-01 
   -7.2213366795915046E-01 
   -7.2778851200320793E-01 
   -7.3642087940543732E-01 
   -7.4279341787041053E-01 
   -7.3371381218639620E-01 
   -7.3988514383609638E-01 
   -7.4944985670279030E-01 
   -7.5636675184974722E-01 
   -7.4627714986392579E-01 
   -7.5286396550435597E-01 
   -7.6352005025797320E-01 
   -7.7088554558663602E-01 
   -7.5961972433238512E-01 
   -7.6651913267461347E-01 
   -7.7843937526848594E-01 
   -7.8615852977733058E-01 
   -7.7353808366994337E-01 
   -7.0498339664715592E-01 
   -7.1041649020988540E-01 
   -7.0741914676476092E-01 
   -7.0198470493503762E-01 
   -6.9933947036336663E-01 
   -7.0478731160952912E-01 
   -7.0252874993541348E-01 
   -6.9705548060668632E-01 
   -6.9514193227404519E-01 
   -7.0065236719464874E-01 
   -6.9916794127892301E-01 
   -6.9360906284767687E-01 
   -6.9246767829040601E-01 
   -6.9808577641144998E-01 
   -6.9741632189289871E-01 
   -6.9172864608982421E-01 
   -6.9140241393740220E-01 
   -6.9716979584060412E-01 
   -6.9735584364974068E-01 
   -6.9149859414933168E-01 
   -6.9202563205790146E-01 
   -6.9798324777342668E-01 
   -6.9905969332419626E-01 
   -6.9299055870695436E-01 
   -6.9439881658570701E-01 
   -7.0059158502423302E-01 
   -7.0258390574085838E-01 
   -6.9625414163682287E-01 
   -6.9855848395510400E-01 
   -7.0504010483619084E-01 
   -7.0796200502478923E-01 
   -7.0131195177103767E-01 
   -7.0451276707487143E-01 
   -7.1134971853514373E-01 
   -7.1520156644282729E-01 
   -7.0815722560629402E-01 
   -7.1223965834008818E-01 
   -7.1951399863138132E-01 
   -7.2428151566024879E-01 
   -7.1675239574984173E-01 
   -7.2168573988634110E-01 
   -7.2949659768395436E-01 
   -7.3514964927214388E-01 
   -7.2702795254994523E-01 
   -7.3276527039524708E-01 
   -7.4122897222734019E-01 
   -7.4772078082352400E-01 
   -7.3888195940486556E-01 
   -7.4536042142313208E-01 
   -7.5460927464993310E-01 
   -7.6187678267926351E-01 
   -7.5218136391155621E-01 
   -7.5932404039934209E-01 
   -7.6950398758994165E-01 
   -7.7747023143554783E-01 
   -7.6676656310902580E-01 
   -7.7448628121596863E-01 
   -7.8575389292066233E-01 
   -7.9433281437101788E-01 
   -7.8246020899073965E-01 
   -7.9066547908400242E-01 
   -8.0318474567587539E-01 
   -8.1228776632268973E-01 
   -7.9907978923930356E-01 
   -7.1640555881940882E-01 
   -7.2299534955294242E-01 
   -7.1998833892631253E-01 
   -7.1340546156231921E-01 
   -7.1078069433177904E-01 
   -7.1736436244603485E-01 
   -7.1513168849675746E-01 
   -7.0853919681485189E-01 
   -7.0668988202002569E-01 
   -7.1329946416968737E-01 
   -7.1187753873074766E-01 
   -7.0524242738986942E-01 
   -7.0420700965362604E-01 
   -7.1087624971026242E-01 
   -7.1030618925025413E-01 
   -7.0359401060549376E-01 
   -7.0341372010621928E-01 
   -7.1017796739884820E-01 
   -7.1050198556165445E-01 
   -7.0367605700514713E-01 
   -7.0439032078967934E-01 
   -7.1128822845317008E-01 
   -7.1254607778719614E-01 
   -7.0556497882492042E-01 
   -7.0720748754597273E-01 
   -7.1428414648484673E-01 
   -7.1651012887088117E-01 
   -7.0932414158332313E-01 
   -7.1191994258430680E-01 
   -7.1923066035155747E-01 
   -7.2245117938094372E-01 
   -7.1499847913778858E-01 
   -7.1856181030191579E-01 
   -7.2617578499737356E-01 
   -7.3040708472250315E-01 
   -7.2261034740347252E-01 
   -7.2714273175141420E-01 
   -7.3514603009485047E-01 
   -7.4039174055210732E-01 
   -7.3215570951069409E-01 
   -7.3764400907755956E-01 
   -7.4614132079483764E-01 
   -7.5238968209787604E-01 
   -7.4360023069507353E-01 
   -7.5001476240007847E-01 
   -7.5912938401064356E-01 
   -7.6635051883663174E-01 
   -7.5687574008702907E-01 
   -7.6416907156359670E-01 
   -7.7404066596665688E-01 
   -7.8218494466055677E-01 
   -7.7187854371039888E-01 
   -7.7998602691207963E-01 
   -7.9076618982623526E-01 
   -7.9976526344391063E-01 
   -7.8847178086387304E-01 
   -7.9731485087009912E-01 
   -8.0916149357058975E-01 
   -8.1893320540556724E-01 
   -8.0649352595097856E-01 
   -8.1598581385987445E-01 
   -8.2905828122799397E-01 
   -8.3951466878353653E-01 
   -8.2576987942332225E-01 
   -7.3023186196559020E-01 
   -7.3816227987182614E-01 
   -7.3512833163296287E-01 
   -7.2721363795887484E-01 
   -7.2458406242122630E-01 
   -7.3248652119496971E-01 
   -7.3024617145592996E-01 
   -7.2235186589157319E-01 
   -7.2052661411101326E-01 
   -7.2841743172056361E-01 
   -7.2701111069528346E-01 
   -7.1911854461828284E-01 
   -7.1813838368865168E-01 
   -7.2603850932238856E-01 
   -7.2551126095346707E-01 
   -7.1759715537805624E-01 
   -7.1750599220547195E-01 
   -7.2544118196246332E-01 
   -7.2584013316454732E-01 
   -7.1787595420907913E-01 
   -7.1871786002404603E-01 
   -7.2671989065416454E-01 
   -7.2809202330531042E-01 
   -7.2004213054122890E-01 
   -7.2185864290971269E-01 
   -7.2996777288841885E-01 
   -7.3235793149895667E-01 
   -7.2417659038232651E-01 
   -7.2700434192776031E-01 
   -7.3527270984750936E-01 
   -7.3872158907282237E-01 
   -7.3034929472875931E-01 
   -7.3421771270596792E-01 
   -7.4271314828487478E-01 
   -7.4725486025332888E-01 
   -7.3861454512495517E-01 
   -7.4354322129411510E-01 
   -7.5235284884586862E-01 
   -7.5801160443456927E-01 
   -7.4900542055235841E-01 
   -7.5500082143272196E-01 
   -7.6423365810197874E-01 
   -7.7101922273953882E-01 
   -7.6152684028244988E-01 
   -7.6857837771356030E-01 
   -7.7836581957637818E-01 
   -7.8626792235799847E-01 
   -7.7614760054330167E-01 
   -7.8422379598579728E-01 
   -7.9471666724926282E-01 
   -8.0369969153020016E-01 
   -7.9279334116391742E-01 
   -8.0183983055300456E-01 
   -8.1320117244580048E-01 
   -8.2320213038331203E-01 
   -8.1134439195380070E-01 
   -8.2128619414928028E-01 
   -8.3368102796944932E-01 
   -8.4461463286384986E-01 
   -8.3164310679698361E-01 
   -8.4239242369828382E-01 
   -8.5597902411339355E-01 
   -8.6775053896565435E-01 
   -8.5351152275359077E-01 
   -7.4683497473251537E-01 
   -7.5629957346821686E-01 
   -7.5321944542434394E-01 
   -7.4378051164755876E-01 
   -7.4111946422613029E-01 
   -7.5053166590147802E-01 
   -7.4824721685708084E-01 
   -7.3886189278596659E-01 
   -7.3701869511098916E-01 
   -7.4637793089118731E-01 
   -7.4493625862457902E-01 
   -7.3560141787690658E-01 
   -7.3462209369640019E-01 
   -7.4393510127298268E-01 
   -7.4338770116729724E-01 
   -7.3409310629761160E-01 
   -7.3402707912375853E-01 
   -7.4330757314458384E-01 
   -7.4370845932894092E-01 
   -7.3443678020428260E-01 
   -7.3533503614123175E-01 
   -7.4460429317806109E-01 
   -7.4600916233055781E-01 
   -7.3673464869688177E-01 
   -7.3864830782797553E-01 
   -7.4793726224763701E-01 
   -7.5040283356929949E-01 
   -7.4108849479284045E-01 
   -7.4406736821667718E-01 
   -7.5342007569846825E-01 
   -7.5700302774845252E-01 
   -7.4759662494827439E-01 
   -7.5168732645542413E-01 
   -7.6116540602246097E-01 
   -7.6592038504181281E-01 
   -7.5634968072782549E-01 
   -7.6159276964400635E-01 
   -7.7128030731464003E-01 
   -7.7725630630929921E-01 
   -7.6742421316832965E-01 
   -7.7384976550544493E-01 
   -7.8385782868256282E-01 
   -7.9109204757033069E-01 
   -7.8087284568428617E-01 
   -7.8849401739781200E-01 
   -7.9896317129246208E-01 
   -8.0747167435124600E-01 
   -7.9671045152215336E-01 
   -8.0551542975675838E-01 
   -8.1661351304881191E-01 
   -8.2637943695844807E-01 
   -8.1489797685160303E-01 
   -8.2484273475172798E-01 
   -8.3675456397909653E-01 
   -8.4771843255269042E-01 
   -8.3533020072066333E-01 
   -8.4633742250247102E-01 
   -8.5924574380133723E-01 
   -8.7130790734949315E-01 
   -8.5783915593131976E-01 
   -8.6980933955360973E-01 
   -8.8387526424073815E-01 
   -8.9691950171841861E-01 
   -8.8222256434684443E-01 
   -7.6660709606302901E-01 
   -7.7781018551862602E-01 
   -7.7466123603837933E-01 
   -7.6349568492757269E-01 
   -7.6077302669974045E-01 
   -7.7189467194215033E-01 
   -7.6952425099867194E-01 