# vtk DataFile Version 2.0
Pressure Field Data 
ASCII 
DATASET UNSTRUCTURED_GRID 

POINTS 1089 float 

    0.0000000000000000E+00     0.0000000000000000E+00     0.0000000000000000E+00 
    1.0000000000000000E+00     0.0000000000000000E+00     0.0000000000000000E+00 
    1.0000000000000000E+00     1.0000000000000000E+00     0.0000000000000000E+00 
    0.0000000000000000E+00     1.0000000000000000E+00     0.0000000000000000E+00 
    3.1249999999941821E-02     0.0000000000000000E+00     0.0000000000000000E+00 
    6.2499999999872928E-02     0.0000000000000000E+00     0.0000000000000000E+00 
    9.3749999999823030E-02     0.0000000000000000E+00     0.0000000000000000E+00 
    1.2499999999977310E-01     0.0000000000000000E+00     0.0000000000000000E+00 
    1.5624999999968331E-01     0.0000000000000000E+00     0.0000000000000000E+00 
    1.8749999999959341E-01     0.0000000000000000E+00     0.0000000000000000E+00 
    2.1874999999950220E-01     0.0000000000000000E+00     0.0000000000000000E+00 
    2.4999999999941089E-01     0.0000000000000000E+00     0.0000000000000000E+00 
    2.8124999999931971E-01     0.0000000000000000E+00     0.0000000000000000E+00 
    3.1249999999922851E-01     0.0000000000000000E+00     0.0000000000000000E+00 
    3.4374999999913730E-01     0.0000000000000000E+00     0.0000000000000000E+00 
    3.7499999999904610E-01     0.0000000000000000E+00     0.0000000000000000E+00 
    4.0624999999895478E-01     0.0000000000000000E+00     0.0000000000000000E+00 
    4.3749999999886358E-01     0.0000000000000000E+00     0.0000000000000000E+00 
    4.6874999999877792E-01     0.0000000000000000E+00     0.0000000000000000E+00 
    4.9999999999869210E-01     0.0000000000000000E+00     0.0000000000000000E+00 
    5.3124999999876910E-01     0.0000000000000000E+00     0.0000000000000000E+00 
    5.6249999999884603E-01     0.0000000000000000E+00     0.0000000000000000E+00 
    5.9374999999892841E-01     0.0000000000000000E+00     0.0000000000000000E+00 
    6.2499999999901090E-01     0.0000000000000000E+00     0.0000000000000000E+00 
    6.5624999999909328E-01     0.0000000000000000E+00     0.0000000000000000E+00 
    6.8749999999917577E-01     0.0000000000000000E+00     0.0000000000000000E+00 
    7.1874999999925815E-01     0.0000000000000000E+00     0.0000000000000000E+00 
    7.4999999999934064E-01     0.0000000000000000E+00     0.0000000000000000E+00 
    7.8124999999942302E-01     0.0000000000000000E+00     0.0000000000000000E+00 
    8.1249999999950551E-01     0.0000000000000000E+00     0.0000000000000000E+00 
    8.4374999999958789E-01     0.0000000000000000E+00     0.0000000000000000E+00 
    8.7499999999967026E-01     0.0000000000000000E+00     0.0000000000000000E+00 
    9.0624999999975264E-01     0.0000000000000000E+00     0.0000000000000000E+00 
    9.3749999999983513E-01     0.0000000000000000E+00     0.0000000000000000E+00 
    9.6874999999991751E-01     0.0000000000000000E+00     0.0000000000000000E+00 
    1.0000000000000000E+00     3.1249999999941821E-02     0.0000000000000000E+00 
    1.0000000000000000E+00     6.2499999999872928E-02     0.0000000000000000E+00 
    1.0000000000000000E+00     9.3749999999823030E-02     0.0000000000000000E+00 
    1.0000000000000000E+00     1.2499999999977310E-01     0.0000000000000000E+00 
    1.0000000000000000E+00     1.5624999999968331E-01     0.0000000000000000E+00 
    1.0000000000000000E+00     1.8749999999959341E-01     0.0000000000000000E+00 
    1.0000000000000000E+00     2.1874999999950220E-01     0.0000000000000000E+00 
    1.0000000000000000E+00     2.4999999999941089E-01     0.0000000000000000E+00 
    1.0000000000000000E+00     2.8124999999931971E-01     0.0000000000000000E+00 
    1.0000000000000000E+00     3.1249999999922851E-01     0.0000000000000000E+00 
    1.0000000000000000E+00     3.4374999999913730E-01     0.0000000000000000E+00 
    1.0000000000000000E+00     3.7499999999904610E-01     0.0000000000000000E+00 
    1.0000000000000000E+00     4.0624999999895478E-01     0.0000000000000000E+00 
    1.0000000000000000E+00     4.3749999999886358E-01     0.0000000000000000E+00 
    1.0000000000000000E+00     4.6874999999877792E-01     0.0000000000000000E+00 
    1.0000000000000000E+00     4.9999999999869210E-01     0.0000000000000000E+00 
    1.0000000000000000E+00     5.3124999999876910E-01     0.0000000000000000E+00 
    1.0000000000000000E+00     5.6249999999884603E-01     0.0000000000000000E+00 
    1.0000000000000000E+00     5.9374999999892841E-01     0.0000000000000000E+00 
    1.0000000000000000E+00     6.2499999999901090E-01     0.0000000000000000E+00 
    1.0000000000000000E+00     6.5624999999909328E-01     0.0000000000000000E+00 
    1.0000000000000000E+00     6.8749999999917577E-01     0.0000000000000000E+00 
    1.0000000000000000E+00     7.1874999999925815E-01     0.0000000000000000E+00 
    1.0000000000000000E+00     7.4999999999934064E-01     0.0000000000000000E+00 
    1.0000000000000000E+00     7.8124999999942302E-01     0.0000000000000000E+00 
    1.0000000000000000E+00     8.1249999999950551E-01     0.0000000000000000E+00 
    1.0000000000000000E+00     8.4374999999958789E-01     0.0000000000000000E+00 
    1.0000000000000000E+00     8.7499999999967026E-01     0.0000000000000000E+00 
    1.0000000000000000E+00     9.0624999999975264E-01     0.0000000000000000E+00 
    1.0000000000000000E+00     9.3749999999983513E-01     0.0000000000000000E+00 
    1.0000000000000000E+00     9.6874999999991751E-01     0.0000000000000000E+00 
    9.6874999999986700E-01     1.0000000000000000E+00     0.0000000000000000E+00 
    9.3749999999973976E-01     1.0000000000000000E+00     0.0000000000000000E+00 
    9.0624999999967670E-01     1.0000000000000000E+00     0.0000000000000000E+00 
    8.7499999999950118E-01     1.0000000000000000E+00     0.0000000000000000E+00 
    8.4374999999971556E-01     1.0000000000000000E+00     0.0000000000000000E+00 
    8.1249999999991318E-01     1.0000000000000000E+00     0.0000000000000000E+00 
    7.8125000000010270E-01     1.0000000000000000E+00     0.0000000000000000E+00 
    7.5000000000034706E-01     1.0000000000000000E+00     0.0000000000000000E+00 
    7.1875000000056688E-01     1.0000000000000000E+00     0.0000000000000000E+00 
    6.8750000000078049E-01     1.0000000000000000E+00     0.0000000000000000E+00 
    6.5625000000097422E-01     1.0000000000000000E+00     0.0000000000000000E+00 
    6.2500000000121403E-01     1.0000000000000000E+00     0.0000000000000000E+00 
    5.9375000000151579E-01     1.0000000000000000E+00     0.0000000000000000E+00 
    5.6250000000164757E-01     1.0000000000000000E+00     0.0000000000000000E+00 
    5.3125000000182365E-01     1.0000000000000000E+00     0.0000000000000000E+00 
    5.0000000000205946E-01     1.0000000000000000E+00     0.0000000000000000E+00 
    4.6875000000194023E-01     1.0000000000000000E+00     0.0000000000000000E+00 
    4.3750000000182099E-01     1.0000000000000000E+00     0.0000000000000000E+00 
    4.0625000000169093E-01     1.0000000000000000E+00     0.0000000000000000E+00 
    3.7500000000156092E-01     1.0000000000000000E+00     0.0000000000000000E+00 
    3.4375000000143069E-01     1.0000000000000000E+00     0.0000000000000000E+00 
    3.1250000000130068E-01     1.0000000000000000E+00     0.0000000000000000E+00 
    2.8125000000117062E-01     1.0000000000000000E+00     0.0000000000000000E+00 
    2.5000000000104050E-01     1.0000000000000000E+00     0.0000000000000000E+00 
    2.1875000000091041E-01     1.0000000000000000E+00     0.0000000000000000E+00 
    1.8750000000078040E-01     1.0000000000000000E+00     0.0000000000000000E+00 
    1.5625000000065031E-01     1.0000000000000000E+00     0.0000000000000000E+00 
    1.2500000000052031E-01     1.0000000000000000E+00     0.0000000000000000E+00 
    9.3750000000390132E-02     1.0000000000000000E+00     0.0000000000000000E+00 
    6.2500000000260125E-02     1.0000000000000000E+00     0.0000000000000000E+00 
    3.1250000000130007E-02     1.0000000000000000E+00     0.0000000000000000E+00 
    0.0000000000000000E+00     9.6874999999986700E-01     0.0000000000000000E+00 
    0.0000000000000000E+00     9.3749999999973976E-01     0.0000000000000000E+00 
    0.0000000000000000E+00     9.0624999999967670E-01     0.0000000000000000E+00 
    0.0000000000000000E+00     8.7499999999950118E-01     0.0000000000000000E+00 
    0.0000000000000000E+00     8.4374999999971556E-01     0.0000000000000000E+00 
    0.0000000000000000E+00     8.1249999999991318E-01     0.0000000000000000E+00 
    0.0000000000000000E+00     7.8125000000010270E-01     0.0000000000000000E+00 
    0.0000000000000000E+00     7.5000000000034706E-01     0.0000000000000000E+00 
    0.0000000000000000E+00     7.1875000000056688E-01     0.0000000000000000E+00 
    0.0000000000000000E+00     6.8750000000078049E-01     0.0000000000000000E+00 
    0.0000000000000000E+00     6.5625000000097422E-01     0.0000000000000000E+00 
    0.0000000000000000E+00     6.2500000000121403E-01     0.0000000000000000E+00 
    0.0000000000000000E+00     5.9375000000151579E-01     0.0000000000000000E+00 
    0.0000000000000000E+00     5.6250000000164757E-01     0.0000000000000000E+00 
    0.0000000000000000E+00     5.3125000000182365E-01     0.0000000000000000E+00 
    0.0000000000000000E+00     5.0000000000205946E-01     0.0000000000000000E+00 
    0.0000000000000000E+00     4.6875000000194023E-01     0.0000000000000000E+00 
    0.0000000000000000E+00     4.3750000000182099E-01     0.0000000000000000E+00 
    0.0000000000000000E+00     4.0625000000169093E-01     0.0000000000000000E+00 
    0.0000000000000000E+00     3.7500000000156092E-01     0.0000000000000000E+00 
    0.0000000000000000E+00     3.4375000000143069E-01     0.0000000000000000E+00 
    0.0000000000000000E+00     3.1250000000130068E-01     0.0000000000000000E+00 
    0.0000000000000000E+00     2.8125000000117062E-01     0.0000000000000000E+00 
[...]
CELL_DATA 1024 
SCALARS Pressure float 1 
LOOKUP_TABLE default 

   -3.7143953924581474E-01 
   -3.6807787332353442E-01 
   -3.6195887606163207E-01 
   -3.6046073613890112E-01 
   -3.5262310857141049E-01 
   -3.5595079679514169E-01 
   -3.5074259995164375E-01 
   -3.4666826081933821E-01 
   -3.4199775418780309E-01 
   -3.4639237430898107E-01 
   -3.4282422005307073E-01 
   -3.3829326245111335E-01 
   -3.3536797154516401E-01 
   -3.3994964441635889E-01 
   -3.3769293829982000E-01 
   -3.3310250204861247E-01 
   -3.3141462308262387E-01 
   -3.3599297470288847E-01 
   -3.3480015196525331E-01 
   -3.3024371527867119E-01 
   -3.2954221658712574E-01 
   -3.3407308765137012E-01 
   -3.3377598417290044E-01 
   -3.2927061972809357E-01 
   -3.2939438805352161E-01 
   -3.3387668052444192E-01 
   -3.3434522890615603E-01 
   -3.2988195771881734E-01 
   -3.3070337596196064E-01 
   -3.3515283893679754E-01 
   -3.3627106906665460E-01 
   -3.3182931908688940E-01 
   -3.3323033987478096E-01 
   -3.3767118112824224E-01 
   -3.3932360115718180E-01 
   -3.3487625537390953E-01 
   -3.3673562376780269E-01 
   -3.4119744977825195E-01 
   -3.4326011901035658E-01 
   -3.3877528213838848E-01 
   -3.4095993036719585E-01 
   -3.4547688069352539E-01 
   -3.4781051599219748E-01 
   -3.4325175383748663E-01 
   -3.4561008342020466E-01 
   -3.5022095709254264E-01 
   -3.5266493233238716E-01 
   -3.4799110151379070E-01 
   -3.5034762706126360E-01 
   -3.5509560505905013E-01 
   -3.5746218854747897E-01 
   -3.5262906772777647E-01 
   -3.5478175378197008E-01 
   -3.5970948440136324E-01 
   -3.6177715344418476E-01 
   -3.5675016911021068E-01 
   -3.5848035929826377E-01 
   -3.6359801530860869E-01 
   -3.6509279389628424E-01 
   -3.5992888845263749E-01 
   -3.6108735355875948E-01 
   -3.6615180817631227E-01 
   -3.6657037588684693E-01 
   -3.6208284202565255E-01 
   -3.6750293236175929E-01 
   -3.6819540382508564E-01 
   -3.6444706919139358E-01 
   -3.6308109605394162E-01 
   -3.5837276657377154E-01 
   -3.6050892150975083E-01 
   -3.5670852718249846E-01 
   -3.5395586213076502E-01 
   -3.5006146886680278E-01 
   -3.5325094325687789E-01 
   -3.5023809651044890E-01 
   -3.4675306734502054E-01 
   -3.4402645136519350E-01 
   -3.4770914813667453E-01 
   -3.4566994203086659E-01 
   -3.4185387190187233E-01 
   -3.4020153636479028E-01 
   -3.4411001853381751E-01 
   -3.4301144434265080E-01 
   -3.3903583700308337E-01 
   -3.3832510685050804E-01 
   -3.4235307534134163E-01 
   -3.4211245658228556E-01 
   -3.3803970901308356E-01 
   -3.3815157209091479E-01 
   -3.4226655072397039E-01 
   -3.4279190395277509E-01 
   -3.3863359456080055E-01 
   -3.3945906460228192E-01 
   -3.4366454991574613E-01 
   -3.4485979682663809E-01 
   -3.4060113565891426E-01 
   -3.4203235878920168E-01 
   -3.4635196511453115E-01 
   -3.4811410603625759E-01 
   -3.4372426107118909E-01 
   -3.4564695772518095E-01 
   -3.5011771300264327E-01 
   -3.5233242905030682E-01 
   -3.4776878692388546E-01 
   -3.5005595751261676E-01 
   -3.5472574822297637E-01 
   -3.5726270439197871E-01 
   -3.5247219921283379E-01 
   -3.5497840195687608E-01 
   -3.5990553457451457E-01 
   -3.6261329385383284E-01 
   -3.5753222254876854E-01 
   -3.6008762159340618E-01 
   -3.6534138027106766E-01 
   -3.6804089323357136E-01 
   -3.6259425450361071E-01 
   -3.6499655243998225E-01 
   -3.7065768108394609E-01 
   -3.7313080781142716E-01 
   -3.6723211291431235E-01 
   -3.6922849773585148E-01 
   -3.7538995171127310E-01 
   -3.7735096217776204E-01 
   -3.7089629873243896E-01 
   -3.7211363062079028E-01 
   -3.7890878036677789E-01 
   -3.7992885643644714E-01 
   -3.7269280793707121E-01 
   -3.6955528815184352E-01 
   -3.7132966753721425E-01 
   -3.6804860574999354E-01 
   -3.6611397049750533E-01 
   -3.6262521831244421E-01 
   -3.6483189355503376E-01 
   -3.6177149959920185E-01 
   -3.5926162407357715E-01 
   -3.5616649724942234E-01 
   -3.5896040524757827E-01 
   -3.5647186395727154E-01 
   -3.5343374858758742E-01 
   -3.5111529782461748E-01 
   -3.5435513557730375E-01 
   -3.5263881610701103E-01 
   -3.4923415782156164E-01 
   -3.4779533088567632E-01 
   -3.5133607943493650E-01 
   -3.5044937462312731E-01 
   -3.4679315178067410E-01 
   -3.4621574998610588E-01 
   -3.4997391334153177E-01 
   -3.4990001668084614E-01 
   -3.4604758668195712E-01 
   -3.4627081262526216E-01 
   -3.5021459378164732E-01 
   -3.5090202033660173E-01 
   -3.4686593636952562E-01 
   -3.4781209873249802E-01 
   -3.5194462277513711E-01 
   -3.5332290994351201E-01 
   -3.4908712536302783E-01 
   -3.5066745392253507E-01 
   -3.5501564515699208E-01 
   -3.5699981694301747E-01 
   -3.5252799025132392E-01 
   -3.5464192202839989E-01 
   -3.5925054513359700E-01 
   -3.6174094328629042E-01 
   -3.5698050522960345E-01 
   -3.5951282911265042E-01 
   -3.6444195032656973E-01 
   -3.6732213566617788E-01 
   -3.6220555892945699E-01 
   -3.6502264865708389E-01 
   -3.7034747730497952E-01 
   -3.7348110610870927E-01 
   -3.6792500729233441E-01 
   -3.7087008919769610E-01 
   -3.7668300345487815E-01 
   -3.7990963364493752E-01 
   -3.7381135930508907E-01 
   -3.7669755482796946E-01 
   -3.8311349136783901E-01 
   -3.8624255972048627E-01 
   -3.7947163148293428E-01 
   -3.8206927179254946E-01 
   -3.8923973841519577E-01 
   -3.9204248798789848E-01 
   -3.8441695462289971E-01 
   -3.8643016292500154E-01 
   -3.9458338465009080E-01 
   -3.9679318083200243E-01 
   -3.8801415902623870E-01 
   -3.7341166237624346E-01 
   -3.7576251310011560E-01 
   -3.7263667722051469E-01 
   -3.7022484903153746E-01 
   -3.6718211318619959E-01 
   -3.6971177052543835E-01 
   -3.6701864626599623E-01 
   -3.6433490591677609E-01 
   -3.6174281690911547E-01 
   -3.6459624500928628E-01 
   -3.6248303757998285E-01 
   -3.5945942074760334E-01 
   -3.5752592228365221E-01 
   -3.6071166658752413E-01 
   -3.5930672706598527E-01 
   -3.5597021976430887E-01 
   -3.5480856787530546E-01 
   -3.5828462560336288E-01 
   -3.5765447045311832E-01 
   -3.5404798828362366E-01 
   -3.5368852296881320E-01 
   -3.5741928636017817E-01 
   -3.5757717856781257E-01 
   -3.5372501663426231E-01 
   -3.5414840025887878E-01 
   -3.5812229207962704E-01 
   -3.5904553300206149E-01 
   -3.5494655535388503E-01 
   -3.5610486073026976E-01 
   -3.6033507540722803E-01 
   -3.6197669208998789E-01 
   -3.5760651168037255E-01 
   -3.5943268074963519E-01 
   -3.6395395276310366E-01 
   -3.6624832288112336E-01 
   -3.6156257017214943E-01 
   -3.6397339066554152E-01 
   -3.6883919224595207E-01 
   -3.7170385428171182E-01 
   -3.6664028997950676E-01 
   -3.6953624647252703E-01 
   -3.7481745198248728E-01 
   -3.7815290261572049E-01 
   -3.7263193735887684E-01 
   -3.7589558671325851E-01 
   -3.8168081073675697E-01 
   -3.8536937837345359E-01 
   -3.7929279579803749E-01 
   -3.8278635688156226E-01 
   -3.8918432287978028E-01 
   -3.9308881902978515E-01 
   -3.8633605475736810E-01 
   -3.8989847124754584E-01 
   -3.9704349549736767E-01 
   -4.0100654276810505E-01 
   -3.9342683785510907E-01 
   -3.9687104913391230E-01 
   -4.0493403738502215E-01 
   -4.0878066209457503E-01 
   -4.0017808502278868E-01 
   -4.0329332500610082E-01 
   -4.1250109646411820E-01 
   -4.1605240797083415E-01 
   -4.0616354629001122E-01 
   -3.7837824702610601E-01 
   -3.8127404597971809E-01 
   -3.7822110130386521E-01 
   -3.7529468811858835E-01 
   -3.7245378540440521E-01 
   -3.7544257620826960E-01 
   -3.7295273451040351E-01 
   -3.6987561761762788E-01 
   -3.6758663713842910E-01 
   -3.7077049639405124E-01 
   -3.6891655809478918E-01 
   -3.6561469706389954E-01 
   -3.6398519931210782E-01 
   -3.6741079088551543E-01 
   -3.6627040774225716E-01 
   -3.6271886556070115E-01 
   -3.6183088425428833E-01 
   -3.6550895476017714E-01 
   -3.6513595252786651E-01 
   -3.6133095140391058E-01 
   -3.6122376597523231E-01 
   -3.6515695790028990E-01 
   -3.6557384137090543E-01 
   -3.6150967815007817E-01 
   -3.6218531871232029E-01 
   -3.6638514215619988E-01 
   -3.6758641397499658E-01 
   -3.6324413063746175E-01 
   -3.6467677936826881E-01 
   -3.6917052085986829E-01 
   -3.7112786748332338E-01 
   -3.6647144665261289E-01 
   -3.6861402502461882E-01 
   -3.7344656453452901E-01 
   -3.7611253737241823E-01 
   -3.7108823316735490E-01 
   -3.7387567159295282E-01 
   -3.7910958944994871E-01 
   -3.8241943292120156E-01 
   -3.7695583574119895E-01 
   -3.8030610115187408E-01 
   -3.8602169878617187E-01 
   -3.8989393873639550E-01 
   -3.8390169347891290E-01 
   -3.8771565517567669E-01 
   -3.9401163109322590E-01 
   -3.9834820437438428E-01 
   -3.9171882121537138E-01 
   -3.9587981881812784E-01 
   -4.0287509460053322E-01 
   -4.0756185718496074E-01 
   -4.0016511233933066E-01 
   -4.0453912556696264E-01 
   -4.1237636173818865E-01 
   -4.1728510880811814E-01 
   -4.0896449238104832E-01 
   -4.1340251412121998E-01 
   -4.2225372029869129E-01 
   -4.2724766547905230E-01 
   -4.1781393509321002E-01 
   -4.2216017228841929E-01 
   -4.3223328080003864E-01 
   -4.3717910256540743E-01 
   -4.2640511063769859E-01 
   -3.8447630262500487E-01 
   -3.8801831142404059E-01 
   -3.8500445558980856E-01 
   -3.8144593899121687E-01 
   -3.7871503202900098E-01 
   -3.8231037029365073E-01 
   -3.7994531670557136E-01 
   -3.7629463132212604E-01 
   -3.7419910224185965E-01 
   -3.7792091305289660E-01 
   -3.7625010687270966E-01 
   -3.7244443069762567E-01 
   -3.7104650322744909E-01 
   -3.7494603699288909E-01 
   -3.7402101347740641E-01 
   -3.7001971660251320E-01 
   -3.6937604827860737E-01 
   -3.7348574163189213E-01 
   -3.7334881590474805E-01 
   -3.6912455910511954E-01 
   -3.6927122405565516E-01 
   -3.7361644905343805E-01 
   -3.7429237504429241E-01 
   -3.6981897284338533E-01 
   -3.7076784093329695E-01 
   -3.7537786264484541E-01 
   -3.7687178746695887E-01 
   -3.7211516004557399E-01 
   -3.7385574430946023E-01 
   -3.7877072498011133E-01 
   -3.8106904091757426E-01 
   -3.7598204904840338E-01 
   -3.7848429344360979E-01 
   -3.8375896665726456E-01 
   -3.8683065530705885E-01 
   -3.8135054724845480E-01 
   -3.8456678692924673E-01 
   -3.9027221984009580E-01 
   -3.9406975839120545E-01 
   -3.8811692948275489E-01 
   -3.9198285377548636E-01 
   -3.9820737437585141E-01 
   -4.0266720092713754E-01 
   -3.9614442029436114E-01 
   -4.0057950120385305E-01 
   -4.0742944062455333E-01 
   -4.1247243285766999E-01 
   -4.0526403396480393E-01 
   -4.1017211381697560E-01 
   -4.1777276258227364E-01 
   -4.2330542573278218E-01 
   -4.1527614345298453E-01 
   -4.2054706229053995E-01 
   -4.2904406799820666E-01 
   -4.3496131452468584E-01 
   -4.2595468254266383E-01 
   -4.3146816309950498E-01 
   -4.4102920711195287E-01 
   -4.4721976037616923E-01 
   -4.3705665156768808E-01 
   -4.4269011269271258E-01 
   -4.5350563570115027E-01 
   -4.5986090792351331E-01 
   -4.4834032814354963E-01 
   -3.9193780740709333E-01 
   -3.9627550571131709E-01 
   -3.9328028446270463E-01 
   -3.8893546856965755E-01 
   -3.8626972712682073E-01 
   -3.9063575920026583E-01 
   -3.8834975486706608E-01 
   -3.8394887712570991E-01 
   -3.8198291096547132E-01 
   -3.8643135543916218E-01 
   -3.8489047676084687E-01 
   -3.8038287261301490E-01 
   -3.7916009196031447E-01 
   -3.8373733814545158E-01 
   -3.8298192056344665E-01 
   -3.7832544383756733E-01 
   -3.7788872775698129E-01 
   -3.8263347956180921E-01 
   -3.8270015126524048E-01 
   -3.7785820926277502E-01 
   -3.7824032059901391E-01 
   -3.8318866207308899E-01 
   -3.8410413308883240E-01 
   -3.7903949335567760E-01 
   -3.8025808656933358E-01 
   -3.8544995994529069E-01 
   -3.8722774572546287E-01 
   -3.8189637501863766E-01 
   -3.8395256902019392E-01 
   -3.8943726649520227E-01 
   -3.9207645321968576E-01 
   -3.8642284525034398E-01 
   -3.8930137595244801E-01 
   -3.9514137890228146E-01 
   -3.9862624473191977E-01 
   -3.9258035047475137E-01 
   -3.9624998826345104E-01 
   -4.0252336343798140E-01 
   -4.0682314182073170E-01 
   -4.0029854638509477E-01 
   -4.0471232764820786E-01 
   -4.1151406757738501E-01 
   -4.1658270812651182E-01 
   -4.0947569768832631E-01 
   -4.1457112114888994E-01 
   -4.2201373114645568E-01 
   -4.2778995790617752E-01 
   -4.1997922841678431E-01 
   -4.2567892524845896E-01 
   -4.3389246101445211E-01 
   -4.4030071771240020E-01 
   -4.3164755794722554E-01 
   -4.3786114629373074E-01 
   -4.4699282801351276E-01 
   -4.5394580358206055E-01 
   -4.4429469476827260E-01 
   -4.5092258901287235E-01 
   -4.6113592799643000E-01 
   -4.6853918181875726E-01 
   -4.5771907789480853E-01 
   -4.6465883065441665E-01 
   -4.7613171673759119E-01 
   -4.8389035250235624E-01 
   -4.7171754258317511E-01 
   -4.0107421740900240E-01 
   -4.0637830885208032E-01 
   -4.0338514240526196E-01 
   -3.9808201446846869E-01 
   -3.9545233355742615E-01 
   -4.0076431082055008E-01 
   -3.9852356045534071E-01 
   -3.9319285063390574E-01 
   -3.9131221664913018E-01 
   -3.9667143807583449E-01 
   -3.9521706811921675E-01 
   -3.8981975906835659E-01 
   -3.8872510437387991E-01 
   -3.9416987141463422E-01 
   -3.9353925860954625E-01 
   -3.8803777530968003E-01 
   -3.8776680920599371E-01 
   -3.9333432908469462E-01 
   -3.9356359794917528E-01 
   -3.8792042809008825E-01 
   -3.8850577424870297E-01 
   -3.9423476343203717E-01 
   -3.9535451755366191E-01 
   -3.8952871097387609E-01 
   -3.9099367921504491E-01 
   -3.9692839598869406E-01 
   -3.9896065895918215E-01 
   -3.9290359663228341E-01 
   -3.9525978499091047E-01 
   -4.0145419350634626E-01 
   -4.0441042794875498E-01 
   -3.9806191364509574E-01 
   -4.0130794992604280E-01 
   -4.0782925109458640E-01 
   -4.1170893132135150E-01 
   -4.0499411082151487E-01 
   -4.0911481396724436E-01 
   -4.1604603362253262E-01 
   -4.2083533593668654E-01 
   -4.1366262944716986E-01 
   -4.1862823711016783E-01 
   -4.2606974937707326E-01 
   -4.3174025021322648E-01 
   -4.2400039696482661E-01 
   -4.2976594256632356E-01 
   -4.3783583437779344E-01 
   -4.4434350749595680E-01 
   -4.3590980892082548E-01 
   -4.4241510696239283E-01 
   -4.5124832441156643E-01 
   -4.5853349124924458E-01 
   -4.4926325570199116E-01 
   -4.5643418033216243E-01 
   -4.6618053956951472E-01 
   -4.7416957579313423E-01 
   -4.6390657968366961E-01 
   -4.7165825958718915E-01 
   -4.8247960005753354E-01 
   -4.9108887820286201E-01 
   -4.7966652046908748E-01 
   -4.8790857898409762E-01 
   -4.9997534082005890E-01 
   -5.0911697695063896E-01 
   -4.9636199615374399E-01 
   -4.1223337798211124E-01 
   -4.1868607193240498E-01 
   -4.1567892930342282E-01 
   -4.0923526203574540E-01 
   -4.0661740900922583E-01 
   -4.1305813146314818E-01 
   -4.1083202094558824E-01 
   -4.0438779781983741E-01 
   -4.0255511039129238E-01 
   -4.0900960036518563E-01 
   -4.0760037585827724E-01 
   -4.0112855254364232E-01 
   -4.0011763386021815E-01 
   -4.0661417491466184E-01 
   -4.0606095238702994E-01 
   -3.9953192756778466E-01 
   -3.9938083047266293E-01 
   -4.0595059720406612E-01 
   -4.0629274928068371E-01 
   -3.9967333843744018E-01 
   -4.0041784663651842E-01 
   -4.0709663218151110E-01 
   -4.0837090309174012E-01 
   -4.0162197761252660E-01 
   -4.0329243511269419E-01 
   -4.1012351821558879E-01 
   -4.1236160921494452E-01 
   -4.0543487832176422E-01 
   -4.0805380945084618E-01 
   -4.1509136483612225E-01 
   -4.1831791141368724E-01 
   -4.1115246744993728E-01 
   -4.1473272156668245E-01 
   -4.2204518638969973E-01 
   -4.2627580026004491E-01 
   -4.1879496029355845E-01 
   -4.2333797373195420E-01 
   -4.3101088442355517E-01 
   -4.3624992528438633E-01 
   -4.2835883043275685E-01 
   -4.3385275325602696E-01 
   -4.4199058867990754E-01 
   -4.4822854325209521E-01 
   -4.3981300258923151E-01 
   -4.4623077910124292E-01 
   -4.5495729655007039E-01 
   -4.6216806291718066E-01 
   -4.5309516158837887E-01 
   -4.6039309760187236E-01 
   -4.6984968656808396E-01 
   -4.7798864512458361E-01 
   -4.6810946437819867E-01 
   -4.7622721397370393E-01 
   -4.8656915623163222E-01 
   -4.9557340074208517E-01 
   -4.8472760857608654E-01 
   -4.9359053977212336E-01 
   -5.0498185941321660E-01 
   -5.1477373762544576E-01 
   -5.0279491070700522E-01 
   -5.1231904609322698E-01 
   -5.2492742950373095E-01 
   -5.3542095763715924E-01 
   -5.2214108677220250E-01 
   -4.2578400166056396E-01 
   -4.3357572762006674E-01 
   -4.3053760211301434E-01 
   -4.2276359577255729E-01 
   -4.2013374463996905E-01 
   -4.2789229475483986E-01 
   -4.2564923034696994E-01 
   -4.1790327218422180E-01 
   -4.1608165744831638E-01 
   -4.2381850874295052E-01 
   -4.2241074690063729E-01 
   -4.1467888469351277E-01 
   -4.1370528300570381E-01 
   -4.2143692801823424E-01 
   -4.2090826369197060E-01 
   -4.1317136474409677E-01 
   -4.1308766959534604E-01 
   -4.2083607034425607E-01 
   -4.2123165848525740E-01 
   -4.1346461836310000E-01 
   -4.1431237805967669E-01 
   -4.2210623192463792E-01 
   -4.2347079313977126E-01 
   -4.1564073748099889E-01 
   -4.1745899036691431E-01 
   -4.2533605022834642E-01 
   -4.2771232009094778E-01 
   -4.1977582159901172E-01 
   -4.2259919075568764E-01 
   -4.3060942172928945E-01 
   -4.3403655291451471E-01 
   -4.2593620678534666E-01 
   -4.2979298762176926E-01 
   -4.3800214312972141E-01 
   -4.4251367582596474E-01 
   -4.3417449932677615E-01 
   -4.3908437093646896E-01 
   -4.4757747393535235E-01 
   -4.5319844465102349E-01 
   -4.4452468380672616E-01 
   -4.5049573814220972E-01 
   -4.5937978322054168E-01 
   -4.6612264148519006E-01 
   -4.5699580476125373E-01 
   -4.6402087703146455E-01 
   -4.7342577563404631E-01 
   -4.8128519924331103E-01 
   -4.7156444593388436E-01 
   -4.7961732928318596E-01 
   -4.8969388134329672E-01 
   -4.9864154257125365E-01 
   -4.8816759211778515E-01 
   -4.9720059588761872E-01 
   -5.0811461065241781E-01 
   -5.1809639222538695E-01 
   -5.0669920527896695E-01 
   -5.1664415996640911E-01 
   -5.2856749304023987E-01 
   -5.3950646762948329E-01 
   -5.2701458422980318E-01 
   -5.3778856677494857E-01 
   -5.5089060802148138E-01 
   -5.6269671224174334E-01 
   -5.4894371109008178E-01 
   -4.4211080306215539E-01 
   -4.5143987192739354E-01 
   -4.4835173464226308E-01 
   -4.3905021957614576E-01 
   -4.3638265528022663E-01 
   -4.4565459982193167E-01 
   -4.4335954951645046E-01 
   -4.3411827372559192E-01 
   -4.3226794584094069E-01 
   -4.4147840179612108E-01 
   -4.4002348152900189E-01 
   -4.3084306720566906E-01 
   -4.2985540679263823E-01 
   -4.3900746121846823E-01 
   -4.3844326382507837E-01 
   -4.2931698863378787E-01 
   -4.2924000043615385E-01 
   -4.3834400960103415E-01 
   -4.3872298861877973E-01 
   -4.2963672076369125E-01 
   -4.3051945659335727E-01 
   -4.3959364418810087E-01 
   -4.4096955625190776E-01 
   -4.3190048401442910E-01 
   -4.3379198557841858E-01 
   -4.4286441660676046E-01 
   -4.4529198905511147E-01 
   -4.3620597797536131E-01 
   -4.3915422332434328E-01 
   -4.4826604753578958E-01 
   -4.5180028423487567E-01 
   -4.4264811659815467E-01 
   -4.4669854079903409E-01 
   -4.5590817800506933E-01 
   -4.6060281148041760E-01 
   -4.5131568076686340E-01 
   -4.5650878633317299E-01 
   -4.6589662350936079E-01 
   -4.7180108259678427E-01 
   -4.6228587649997416E-01 
   -4.6865337922236838E-01 
   -4.7832626797373179E-01 
   -4.8548034927773265E-01 
   -4.7561570727277797E-01 
   -4.8317478081081572E-01 
   -4.9326896585983793E-01 
   -5.0169452520057445E-01 
   -4.9132952279657144E-01 
   -5.0007537454748463E-01 
   -5.1075546942940808E-01 
   -5.2044560021794173E-01 
   -5.0940390371601763E-01 
   -5.1930259999165795E-01 
   -5.3075360082371215E-01 
   -5.4166293505087715E-01 
   -5.2975496344827344E-01 
   -5.4074096955514983E-01 
   -5.5315230673503790E-01 
   -5.6519678719159772E-01 
   -5.5223792575833808E-01 
   -5.6422161262464743E-01 
   -5.7776952510026713E-01 
   -5.9084366049569514E-01 
   -5.7666745760613125E-01 
   -4.6161482964785477E-01 
   -4.7268907166094787E-01 
   -4.6952851610113605E-01 
   -4.5849357908187088E-01 
   -4.5575889655485313E-01 
   -4.6674742045395240E-01 
   -4.6435963230763483E-01 