# vtk DataFile Version 2.0
Pressure Field Data 
ASCII 
DATASET UNSTRUCTURED_GRID 

POINTS 16641 float 

    0.0000000000000000E+00     0.0000000000000000E+00     0.0000000000000000E+00 
    1.0000000000000000E+00     0.0000000000000000E+00     0.0000000000000000E+00 
    1.0000000000000000E+00     1.0000000000000000E+00     0.0000000000000000E+00 
    0.0000000000000000E+00     1.0000000000000000E+00     0.0000000000000000E+00 
    7.8124999999851586E-03     0.0000000000000000E+00     0.0000000000000000E+00 
    1.5624999999970480E-02     0.0000000000000000E+00     0.0000000000000000E+00 
    2.3437499999955470E-02     0.0000000000000000E+00     0.0000000000000000E+00 
    3.1249999999940450E-02     0.0000000000000000E+00     0.0000000000000000E+00 
    3.9062499999923402E-02     0.0000000000000000E+00     0.0000000000000000E+00 
    4.6874999999906353E-02     0.0000000000000000E+00     0.0000000000000000E+00 
    5.4687499999889637E-02     0.0000000000000000E+00     0.0000000000000000E+00 
    6.2499999999872928E-02     0.0000000000000000E+00     0.0000000000000000E+00 
    7.0312499999860278E-02     0.0000000000000000E+00     0.0000000000000000E+00 
    7.8124999999847636E-02     0.0000000000000000E+00     0.0000000000000000E+00 
    8.5937499999835673E-02     0.0000000000000000E+00     0.0000000000000000E+00 
    9.3749999999823710E-02     0.0000000000000000E+00     0.0000000000000000E+00 
    1.0156249999981180E-01     0.0000000000000000E+00     0.0000000000000000E+00 
    1.0937499999979980E-01     0.0000000000000000E+00     0.0000000000000000E+00 
    1.1718749999978650E-01     0.0000000000000000E+00     0.0000000000000000E+00 
    1.2499999999977310E-01     0.0000000000000000E+00     0.0000000000000000E+00 
    1.3281249999975170E-01     0.0000000000000000E+00     0.0000000000000000E+00 
    1.4062499999973019E-01     0.0000000000000000E+00     0.0000000000000000E+00 
    1.4843749999970740E-01     0.0000000000000000E+00     0.0000000000000000E+00 
    1.5624999999968461E-01     0.0000000000000000E+00     0.0000000000000000E+00 
    1.6406249999966180E-01     0.0000000000000000E+00     0.0000000000000000E+00 
    1.7187499999963901E-01     0.0000000000000000E+00     0.0000000000000000E+00 
    1.7968749999961620E-01     0.0000000000000000E+00     0.0000000000000000E+00 
    1.8749999999959341E-01     0.0000000000000000E+00     0.0000000000000000E+00 
    1.9531249999957059E-01     0.0000000000000000E+00     0.0000000000000000E+00 
    2.0312499999954781E-01     0.0000000000000000E+00     0.0000000000000000E+00 
    2.1093749999952499E-01     0.0000000000000000E+00     0.0000000000000000E+00 
    2.1874999999950220E-01     0.0000000000000000E+00     0.0000000000000000E+00 
    2.2656249999947939E-01     0.0000000000000000E+00     0.0000000000000000E+00 
    2.3437499999945660E-01     0.0000000000000000E+00     0.0000000000000000E+00 
    2.4218749999943379E-01     0.0000000000000000E+00     0.0000000000000000E+00 
    2.4999999999941089E-01     0.0000000000000000E+00     0.0000000000000000E+00 
    2.5781249999938821E-01     0.0000000000000000E+00     0.0000000000000000E+00 
    2.6562499999936529E-01     0.0000000000000000E+00     0.0000000000000000E+00 
    2.7343749999934253E-01     0.0000000000000000E+00     0.0000000000000000E+00 
    2.8124999999931971E-01     0.0000000000000000E+00     0.0000000000000000E+00 
    2.8906249999929701E-01     0.0000000000000000E+00     0.0000000000000000E+00 
    2.9687499999927408E-01     0.0000000000000000E+00     0.0000000000000000E+00 
    3.0468749999925132E-01     0.0000000000000000E+00     0.0000000000000000E+00 
    3.1249999999922851E-01     0.0000000000000000E+00     0.0000000000000000E+00 
    3.2031249999920580E-01     0.0000000000000000E+00     0.0000000000000000E+00 
    3.2812499999918288E-01     0.0000000000000000E+00     0.0000000000000000E+00 
    3.3593749999916012E-01     0.0000000000000000E+00     0.0000000000000000E+00 
    3.4374999999913730E-01     0.0000000000000000E+00     0.0000000000000000E+00 
    3.5156249999911449E-01     0.0000000000000000E+00     0.0000000000000000E+00 
    3.5937499999909173E-01     0.0000000000000000E+00     0.0000000000000000E+00 
    3.6718749999906891E-01     0.0000000000000000E+00     0.0000000000000000E+00 
    3.7499999999904610E-01     0.0000000000000000E+00     0.0000000000000000E+00 
    3.8281249999902328E-01     0.0000000000000000E+00     0.0000000000000000E+00 
    3.9062499999900052E-01     0.0000000000000000E+00     0.0000000000000000E+00 
    3.9843749999897771E-01     0.0000000000000000E+00     0.0000000000000000E+00 
    4.0624999999895489E-01     0.0000000000000000E+00     0.0000000000000000E+00 
    4.1406249999893208E-01     0.0000000000000000E+00     0.0000000000000000E+00 
    4.2187499999890932E-01     0.0000000000000000E+00     0.0000000000000000E+00 
    4.2968749999888650E-01     0.0000000000000000E+00     0.0000000000000000E+00 
    4.3749999999886358E-01     0.0000000000000000E+00     0.0000000000000000E+00 
    4.4531249999884093E-01     0.0000000000000000E+00     0.0000000000000000E+00 
    4.5312499999881811E-01     0.0000000000000000E+00     0.0000000000000000E+00 
    4.6093749999879519E-01     0.0000000000000000E+00     0.0000000000000000E+00 
    4.6874999999877243E-01     0.0000000000000000E+00     0.0000000000000000E+00 
    4.7656249999874972E-01     0.0000000000000000E+00     0.0000000000000000E+00 
    4.8437499999872691E-01     0.0000000000000000E+00     0.0000000000000000E+00 
    4.9218749999870948E-01     0.0000000000000000E+00     0.0000000000000000E+00 
    4.9999999999869210E-01     0.0000000000000000E+00     0.0000000000000000E+00 
    5.0781249999870726E-01     0.0000000000000000E+00     0.0000000000000000E+00 
    5.1562499999872247E-01     0.0000000000000000E+00     0.0000000000000000E+00 
    5.2343749999874301E-01     0.0000000000000000E+00     0.0000000000000000E+00 
    5.3124999999876366E-01     0.0000000000000000E+00     0.0000000000000000E+00 
    5.3906249999878431E-01     0.0000000000000000E+00     0.0000000000000000E+00 
    5.4687499999880484E-01     0.0000000000000000E+00     0.0000000000000000E+00 
    5.5468749999882538E-01     0.0000000000000000E+00     0.0000000000000000E+00 
    5.6249999999884603E-01     0.0000000000000000E+00     0.0000000000000000E+00 
    5.7031249999886668E-01     0.0000000000000000E+00     0.0000000000000000E+00 
    5.7812499999888733E-01     0.0000000000000000E+00     0.0000000000000000E+00 
    5.8593749999890798E-01     0.0000000000000000E+00     0.0000000000000000E+00 
    5.9374999999892852E-01     0.0000000000000000E+00     0.0000000000000000E+00 
    6.0156249999894906E-01     0.0000000000000000E+00     0.0000000000000000E+00 
    6.0937499999896971E-01     0.0000000000000000E+00     0.0000000000000000E+00 
    6.1718749999899036E-01     0.0000000000000000E+00     0.0000000000000000E+00 
    6.2499999999901090E-01     0.0000000000000000E+00     0.0000000000000000E+00 
    6.3281249999903144E-01     0.0000000000000000E+00     0.0000000000000000E+00 
    6.4062499999905209E-01     0.0000000000000000E+00     0.0000000000000000E+00 
    6.4843749999907274E-01     0.0000000000000000E+00     0.0000000000000000E+00 
    6.5624999999909339E-01     0.0000000000000000E+00     0.0000000000000000E+00 
    6.6406249999911404E-01     0.0000000000000000E+00     0.0000000000000000E+00 
    6.7187499999913458E-01     0.0000000000000000E+00     0.0000000000000000E+00 
    6.7968749999915512E-01     0.0000000000000000E+00     0.0000000000000000E+00 
    6.8749999999917577E-01     0.0000000000000000E+00     0.0000000000000000E+00 
    6.9531249999919642E-01     0.0000000000000000E+00     0.0000000000000000E+00 
    7.0312499999921696E-01     0.0000000000000000E+00     0.0000000000000000E+00 
    7.1093749999923750E-01     0.0000000000000000E+00     0.0000000000000000E+00 
    7.1874999999925815E-01     0.0000000000000000E+00     0.0000000000000000E+00 
    7.2656249999927880E-01     0.0000000000000000E+00     0.0000000000000000E+00 
    7.3437499999929945E-01     0.0000000000000000E+00     0.0000000000000000E+00 
    7.4218749999932010E-01     0.0000000000000000E+00     0.0000000000000000E+00 
    7.4999999999934064E-01     0.0000000000000000E+00     0.0000000000000000E+00 
    7.5781249999936118E-01     0.0000000000000000E+00     0.0000000000000000E+00 
    7.6562499999938183E-01     0.0000000000000000E+00     0.0000000000000000E+00 
    7.7343749999940248E-01     0.0000000000000000E+00     0.0000000000000000E+00 
    7.8124999999942302E-01     0.0000000000000000E+00     0.0000000000000000E+00 
    7.8906249999944356E-01     0.0000000000000000E+00     0.0000000000000000E+00 
    7.9687499999946421E-01     0.0000000000000000E+00     0.0000000000000000E+00 
    8.0468749999948486E-01     0.0000000000000000E+00     0.0000000000000000E+00 
    8.1249999999950551E-01     0.0000000000000000E+00     0.0000000000000000E+00 
    8.2031249999952616E-01     0.0000000000000000E+00     0.0000000000000000E+00 
    8.2812499999954670E-01     0.0000000000000000E+00     0.0000000000000000E+00 
    8.3593749999956724E-01     0.0000000000000000E+00     0.0000000000000000E+00 
    8.4374999999958789E-01     0.0000000000000000E+00     0.0000000000000000E+00 
    8.5156249999960854E-01     0.0000000000000000E+00     0.0000000000000000E+00 
    8.5937499999962907E-01     0.0000000000000000E+00     0.0000000000000000E+00 
    8.6718749999964961E-01     0.0000000000000000E+00     0.0000000000000000E+00 
    8.7499999999967026E-01     0.0000000000000000E+00     0.0000000000000000E+00 
    8.8281249999969091E-01     0.0000000000000000E+00     0.0000000000000000E+00 
    8.9062499999971156E-01     0.0000000000000000E+00     0.0000000000000000E+00 
    8.9843749999973221E-01     0.0000000000000000E+00     0.0000000000000000E+00 
    9.0624999999975275E-01     0.0000000000000000E+00     0.0000000000000000E+00 
[...]
CELL_DATA 16384 
SCALARS Pressure float 1 
LOOKUP_TABLE default 

    6.4966830570079601E+00 
    6.4967126556774488E+00 
    6.4888246401459142E+00 
    6.4887455794834485E+00 
    6.4808968617255722E+00 
    6.4809626920300580E+00 
    6.4731192918314697E+00 
    6.4730699400190801E+00 
    6.4652495963538810E+00 
    6.4652860314081959E+00 
    6.4574583539743458E+00 
    6.4574318169065359E+00 
    6.4496153052867333E+00 
    6.4496339711493684E+00 
    6.4418116890628507E+00 
    6.4417995390330569E+00 
    6.4339842630248070E+00 
    6.4339908395512388E+00 
    6.4261710204335101E+00 
    6.4261693337514636E+00 
    6.4183546621575349E+00 
    6.4183519735725705E+00 
    6.4105335242451895E+00 
    6.4105401890256495E+00 
    6.4027258729321197E+00 
    6.4027155489933323E+00 
    6.3948979575031188E+00 
    6.3949116837585089E+00 
    6.3870975989323400E+00 
    6.3870806818223826E+00 
    6.3792636696393208E+00 
    6.3792836011223679E+00 
    6.3714696767603396E+00 
    6.3714468799237673E+00 
    6.3636302800043820E+00 
    6.3636558150572595E+00 
    6.3558420073284960E+00 
    6.3558138435523821E+00 
    6.3479975491571414E+00 
    6.3480282465189397E+00 
    6.3402145268619146E+00 
    6.3401813792997377E+00 
    6.3323653196013998E+00 
    6.3324008436300758E+00 
    6.3245871929512756E+00 
    6.3245493582666361E+00 
    6.3167334856674779E+00 
    6.3167735716713755E+00 
    6.3089599772519396E+00 
    6.3089176940325471E+00 
    6.3011019772159083E+00 
    6.3011464076944117E+00 
    6.2933328614850472E+00 
    6.2932863305283124E+00 
    6.2854707506188134E+00 
    6.2855193375565994E+00 
    6.2777058352640793E+00 
    6.2776552353985204E+00 
    6.2698397840010784E+00 
    6.2698923543728213E+00 
    6.2620788950578845E+00 
    6.2620243967768321E+00 
    6.2542090753192738E+00 
    6.2542654579143884E+00 
    6.2464520439790272E+00 
    6.2463938225242819E+00 
    6.2385786426841134E+00 
    6.2386386547635038E+00 
    6.2308252923012812E+00 
    6.2307635416200071E+00 
    6.2229485268590903E+00 
    6.2230119592096989E+00 
    6.2151986587704071E+00 
    6.2151336078638186E+00 
    6.2073187963251364E+00 
    6.2073853950320919E+00 
    6.1995721729409201E+00 
    6.1995041065344560E+00 
    6.1916895558548575E+00 
    6.1917589985059900E+00 
    6.1839458790096886E+00 
    6.1838751653190007E+00 
    6.1760609603909833E+00 
    6.1761328232763804E+00 
    6.1683198420179313E+00 
    6.1682469719432369E+00 
    6.1604332375189541E+00 
    6.1605069482817516E+00 
    6.1526941580375611E+00 
    6.1526198029788102E+00 
    6.1448067246720024E+00 
    6.1448814909544724E+00 
    6.1370689714433553E+00 
    6.1369940723333123E+00 
    6.1291819330013420E+00 
    6.1292566300751350E+00 
    6.1214445055415396E+00 
    6.1213704163980189E+00 
    6.1135596624383810E+00 
    6.1136326474145024E+00 
    6.1058211201075157E+00 
    6.1057498519103666E+00 
    6.0979412219792106E+00 
    6.0980100086907587E+00 
    6.0901994276437499E+00 
    6.0901340892197995E+00 
    6.0823288847224655E+00 
    6.0823895344043821E+00 
    6.0745805510094479E+00 
    6.0745262091609389E+00 
    6.0667269219971720E+00 
    6.0667727998643555E+00 
    6.0589667650267165E+00 
    6.0589322912968946E+00 
    6.0511442558366246E+00 
    6.0511632007551084E+00 
    6.0433633275700052E+00 
    6.0433659059847393E+00 
    6.0356024192476463E+00 
    6.0355691776160070E+00 
    6.0277840999020533E+00 
    6.0278630312490913E+00 
    6.0201657056876261E+00 
    6.0200127987843137E+00 
    6.0122560821778306E+00 
    6.0125502424469799E+00 
    6.0051234619808573E+00 
    6.0044714050496069E+00 
    5.9645224008045101E+00 
    5.9632576002155488E+00 
    5.8855852498641230E+00 
    5.8863578712502882E+00 
    5.8082719860206566E+00 
    5.8076731101646013E+00 
    5.7296680708493817E+00 
    5.7301821299019764E+00 
    5.6520814305808713E+00 
    5.6516176106699092E+00 
    5.5735415405465050E+00 
    5.5739727433673938E+00 
    5.4958588074102073E+00 
    5.4954497036674139E+00 
    5.4173475366931658E+00 
    5.4177413929222054E+00 
    5.3396215888943361E+00 
    5.3392382582493179E+00 
    5.2611238755913972E+00 
    5.2615000773238609E+00 
    5.1833772999412426E+00 
    5.1830056948025174E+00 
    5.1048845967082128E+00 
    5.1052535529301117E+00 
    5.0271290411796485E+00 
    5.0267611936998113E+00 
    4.9486359226803689E+00 
    4.9490039102863097E+00 
    4.8708782660839480E+00 
    4.8705091022123117E+00 
    4.7923809688193328E+00 
    4.7927521869626943E+00 
    4.7146257318762226E+00 
    4.7142517007251605E+00 
    4.6361214337824741E+00 
    4.6364989456887349E+00 
    4.5583718628319181E+00 
    4.5579902724086754E+00 
    4.4798582972465724E+00 
    4.4802445098583057E+00 
    4.4021169072574873E+00 
    4.4017255706269536E+00 
    4.3235921405239095E+00 
    4.3239890707686719E+00 
    4.2458610123411207E+00 
    4.2454580434558791E+00 
    4.1673233066357867E+00 
    4.1677327408451879E+00 
    4.0896042626024114E+00 
    4.0891879495765524E+00 
    4.0110519852944764E+00 
    4.0114755817820607E+00 
    3.9333467006974212E+00 
    3.9329154212104243E+00 
    3.8547782598195237E+00 
    3.8552176200253827E+00 
    3.7770883389661907E+00 
    3.7766404991797575E+00 
    3.6985021332552002E+00 
    3.6989588553546398E+00 
    3.6208291657315343E+00 
    3.6203631521394284E+00 
    3.5422235421768504E+00 
    3.5426992653812017E+00 
    3.4645691483385117E+00 
    3.4640832859934640E+00 
    3.3859423624441307E+00 
    3.3864388073678851E+00 
    3.3083082339152385E+00 
    3.3078007464792809E+00 
    3.2296584089302889E+00 
    3.2301774180323095E+00 
    3.1520463482714827E+00 
    3.1515153162093350E+00 
    3.0733714299162447E+00 
    3.0739150115487628E+00 
    2.9957833929715747E+00 
    2.9952267063410503E+00 
    2.9170810958457625E+00 
    2.9176514756240790E+00 
    2.8395192403034146E+00 
    2.8389345421044263E+00 
    2.7607869811738963E+00 
    2.7613866651975321E+00 
    2.6832537254912174E+00 
    2.6826383403590963E+00 
    2.6044885368265738E+00 
    2.6051203928841664E+00 
    2.5269866350007413E+00 
    2.5263374759070243E+00 
    2.4481850490103647E+00 
    2.4488524146640196E+00 
    2.3707176890001387E+00 
    2.3700311310557955E+00 
    2.2918755772936210E+00 
    2.2925824083308930E+00 
    2.2144465148014949E+00 
    2.2137182193643454E+00 
    2.1355588604108471E+00 
    2.1363099406848995E+00 
    2.0581726063005239E+00 
    2.0573972690352802E+00 
    1.9792331719119605E+00 
    1.9800344175132727E+00 
    1.9018952628749046E+00 
    1.9010662450008831E+00 
    1.8228961037397564E+00 
    1.8237550107555252E+00 
    1.7456135076338182E+00 
    1.7447222938114142E+00 
    1.6665442872999880E+00 
    1.6674705810589261E+00 
    1.5893260578215476E+00 
    1.5883614974213831E+00 
    1.5101733467063643E+00 
    1.5111798303440869E+00 
    1.4330320820499169E+00 
    1.4319794790826792E+00 
    1.3537803421064734E+00 
    1.3548840740215378E+00 
    1.2767410730991853E+00 
    1.2755786481403708E+00 
    1.1973824687981138E+00 
    1.1986240722422739E+00 
    1.1206199307273732E+00 
    1.1192082653367521E+00 
    1.0410572998875860E+00 
    1.0431079174006335E+00 
    6.4967502917598230E+00 
    6.4967849896020118E+00 
    6.4889133937542045E+00 
    6.4888752424721128E+00 
    6.4810119148892600E+00 
    6.4810496127395112E+00 
    6.4731944203836704E+00 
    6.4731607935681588E+00 
    6.4653188555253109E+00 
    6.4653467849761341E+00 
    6.4575051372754926E+00 
    6.4574832294113094E+00 
    6.4496519048976877E+00 
    6.4496680441654792E+00 
    6.4418343885561251E+00 
    6.4418235790549891E+00 
    6.4339974118906547E+00 
    6.4340033488199104E+00 
    6.4261743299335379E+00 
    6.4261728496361368E+00 
    6.4183495154759882E+00 
    6.4183468990584203E+00 
    6.4105207370530897E+00 
    6.4105271444714331E+00 
    6.4027055446061407E+00 
    6.4026956045855590E+00 
    6.3948713190070423E+00 
    6.3948845729394375E+00 
    6.3870641205825383E+00 
    6.3870477385927753E+00 
    6.3792247517047995E+00 
    6.3792441029474798E+00 
    6.3714244532362034E+00 
    6.3714022692352987E+00 
    6.3635802192545885E+00 
    6.3636051179790325E+00 
    6.3557860539060993E+00 
    6.3557585431609285E+00 
    6.3479371928699031E+00 
    6.3479672257089250E+00 
    6.3401486044111834E+00 
    6.3401161287357377E+00 
    6.3322953179971107E+00 
    6.3323301661661802E+00 
    6.3245118913598901E+00 
    6.3244747336055038E+00 
    6.3166543533377837E+00 
    6.3166937639375158E+00 
    6.3088757708972780E+00 
    6.3088341591240233E+00 
    6.3010141365419141E+00 
    6.3010579019122419E+00 
    6.2932401490526972E+00 
    6.2931942744431240E+00 
    6.2853745646872516E+00 
    6.2854225065899874E+00 
    6.2776049708685431E+00 
    6.2775550019662791E+00 
    6.2697355837083268E+00 
    6.2697875402374423E+00 
    6.2619702150363601E+00 
    6.2619163100538175E+00 
    6.2540971839010009E+00 
    6.2541529976336294E+00 
    6.2463358925168793E+00 
    6.2462782110212487E+00 
    6.2384594002477201E+00 
    6.2385189064392650E+00 
    6.2307020486269700E+00 
    6.2306407637445567E+00 
    6.2228223173675881E+00 
    6.2228853310568102E+00 
    6.2150687688164004E+00 
    6.2150040811321912E+00 
    6.2071860798096035E+00 
    6.2072523805639834E+00 
    6.1994361891109184E+00 
    6.1993683436803391E+00 
    6.1915509094828467E+00 
    6.1916202221577192E+00 
    6.1838045132250832E+00 
    6.1837338216082891E+00 
    6.1759171336094738E+00 
    6.1759891028358007E+00 
    6.1681740400235094E+00 
    6.1681009101155269E+00 
    6.1602852292765551E+00 
    6.1603593842725184E+00 
    6.1525452080331942E+00 
    6.1524701859084683E+00 
    6.1446558955733757E+00 
    6.1447316000157954E+00 
    6.1369186695514966E+00 
    6.1368424999251641E+00 
    6.1290301737870907E+00 
    6.1291065524374915E+00 
    6.1212954188779465E+00 
    6.1212191346314899E+00 
    6.1134096554363841E+00 
    6.1134854844341691E+00 
    6.1056770253732893E+00 
    6.1056020823573665E+00 
    6.0977968593676239E+00 
    6.0978704005717308E+00 
    6.0900660833933635E+00 
    6.0899945631354200E+00 
    6.0821959531720884E+00 
    6.0822647090934501E+00 
    6.0744671469849987E+00 
    6.0744020450943346E+00 
    6.0666142193346850E+00 
    6.0666746131468701E+00 
    6.0588888513949479E+00 
    6.0588343847438182E+00 
    6.0510652274169026E+00 
    6.0511124326800712E+00 
    6.0433492665320223E+00 
    6.0433105902274820E+00 
    6.0355760436595887E+00 
    6.0356055045942147E+00 
    6.0278911897947589E+00 
    6.0278696983487743E+00 
    6.0202031688746649E+00 
    6.0202233330482011E+00 
    6.0126315165090967E+00 
    6.0125919360799260E+00 
    6.0050518551174958E+00 
    6.0051660079638092E+00 
    5.9627446800903545E+00 
    5.9624246570018000E+00 
    5.8846050142771711E+00 
    5.8850196366166818E+00 
    5.8071498894942160E+00 
    5.8067144217687741E+00 
    5.7287599464117962E+00 
    5.7291887838693771E+00 
    5.6511723098882172E+00 
    5.6507572989519268E+00 
    5.5727200647862514E+00 
    5.5731212136277906E+00 
    5.4950475037876334E+00 
    5.4946581020006864E+00 
    5.4165782215112284E+00 
    5.4169583878257193E+00 
    5.3388583674319250E+00 
    5.3384850941609736E+00 
    5.2603819511190668E+00 
    5.2607503599562095E+00 
    5.1826363191526701E+00 
    5.1822710613096259E+00 
    5.1041540452054885E+00 
    5.1045175918938481E+00 
    5.0263951305228938E+00 
    5.0260320799294496E+00 
    4.9479060342926671E+00 
    4.9482696234127115E+00 
    4.8701415776339267E+00 
    4.8697765588617088E+00 
    4.7916441469578652E+00 
    4.7920113727226639E+00 
    4.7138792965163647E+00 
    4.7135091766378361E+00 
    4.6353719400478059E+00 
    4.6357455695734542E+00 
    4.5576103621500987E+00 
    4.5572326642629113E+00 
    4.4790915262935105E+00 
    4.4794738062162773E+00 
    4.4013360040973817E+00 
    4.4009486640321560E+00 
    4.3228041843321714E+00 
    4.3231970347760686E+00 
    4.2450569585424205E+00 
    4.2446581690287859E+00 
    4.1665106794625189E+00 
    4.1669158204580121E+00 
    4.0887736529539840E+00 
    4.0883617598961983E+00 
    4.0102114401022702E+00 
    4.0106304777861110E+00 
    3.9324863075043135E+00 
    3.9320597373179633E+00 
    3.8539066577104562E+00 
    3.8543411465485948E+00 
    3.7761949920517122E+00 
    3.7757521974548163E+00 
    3.6975963434988866E+00 
    3.6980478344060383E+00 
    3.6198996576356524E+00 
    3.6194390740684281E+00 
    3.5412803589499058E+00 
    3.5417504396022461E+00 
    3.4636001520638922E+00 
    3.4631201595760528E+00 
    3.3849584289294761E+00 
    3.3854487605981887E+00 
    3.3072962243947908E+00 
    3.3067951112711773E+00 
    3.2286301416934018E+00 
    3.2291424959166162E+00 
    3.1509875204235813E+00 
    3.1504634454890770E+00 
    3.0722949373229196E+00 
    3.0728312353471221E+00 
    2.9946735694977362E+00 
    2.9941245201813000E+00 
    2.9159520840691378E+00 
    2.9165144420806444E+00 
    2.8383537614866050E+00 
    2.8377775044113362E+00 
    2.7596006401034678E+00 
    2.7601914238147041E+00 
    2.6820273110711534E+00 
    2.6814213311400881E+00 
    2.6032393957286302E+00 
    2.6038612889721211E+00 
    2.5256932042580091E+00 
    2.5250546267705207E+00 
    2.4468667875571408E+00 
    2.4475228814001357E+00 
    2.3693501185467372E+00 
    2.3686756064840426E+00 
    2.2904807705294630E+00 
    2.2911746825124748E+00 
    2.2129963025610344E+00 
    2.2122819171670600E+00 
    2.1340786242863303E+00 
    2.1348146626679556E+00 
    2.0566293918773026E+00 
    2.0558703975628667E+00 
    1.9776566545533625E+00 
    1.9784400523047578E+00 
    1.9002461243245459E+00 
    1.8994367045657110E+00 
    1.8212097230313002E+00 
    1.8220469885943253E+00 
    1.7438419050211014E+00 
    1.7429747185882574E+00 
    1.6647304900463220E+00 
    1.6656299899176725E+00 
    1.5874101950198594E+00 
    1.5864755678666709E+00 
    1.5082081277637522E+00 
    1.5091812959581594E+00 
    1.4309418996311276E+00 
    1.4299258437586890E+00 
    1.3516255902175400E+00 
    1.3526904563722946E+00 
    1.2744251068606272E+00 
    1.2733027462844912E+00 
    1.1949494791229061E+00 
    1.1961424885346670E+00 
    1.1178319832566379E+00 
    1.1165506854885636E+00 
    1.0380760387640284E+00 
    1.0394539072389881E+00 
    6.4968143047979465E+00 
    6.4968380859413442E+00 
    6.4889674949716758E+00 
    6.4889435709630634E+00 
    6.4810791127297431E+00 
    6.4811022610524800E+00 
    6.4732425232287181E+00 
    6.4732213060825412E+00 
    6.4653697367326313E+00 
    6.4653880583971164E+00 
    6.4575383561247470E+00 
    6.4575235416745258E+00 
    6.4496817635954145E+00 
    6.4496927769827952E+00 
    6.4418506773405344E+00 
    6.4418435380620984E+00 
    6.4340081530289934E+00 
    6.4340114761837928E+00 
    6.4261746787264649E+00 
    6.4261750460497460E+00 
    6.4183437800129974E+00 
    6.4183398763619985E+00 
    6.4105067365558623E+00 
    6.4105140160463376E+00 
    6.4026854901552861E+00 
    6.4026749900513957E+00 
    6.3948444187106057E+00 
    6.3948579949278201E+00 
    6.3870313657833337E+00 
    6.3870148451589621E+00 
    6.3791861244130530E+00 
    6.3792054708035462E+00 
    6.3713802032388900E+00 
    6.3713581372835320E+00 
    6.3635307852393810E+00 
    6.3635554759693536E+00 
    6.3557312173836165E+00 
    6.3557039864278595E+00 
    6.3478776725913963E+00 
    6.3479073682894835E+00 
    6.3400838795793835E+00 
    6.3400517866755868E+00 
    6.3322262809696115E+00 
    6.3322607104541744E+00 
    6.3244378270649175E+00 
    6.3244011156587652E+00 
    6.3165762576985474E+00 
    6.3166152014718140E+00 
    6.3087928108477476E+00 
    6.3087516799426409E+00 
    6.3009273604742226E+00 
    6.3009706368739282E+00 
    6.2931486652897481E+00 
    6.2931032821032593E+00 
    6.2852794320023264E+00 
    6.2853268855695434E+00 
    6.2775052907070927E+00 
    6.2774558014613531E+00 
    6.2696323857478999E+00 
    6.2696838770949768E+00 
    6.2618626444908001E+00 
    6.2618091840646715E+00 
    6.2539861996003836E+00 
    6.2540415960667417E+00 
    6.2462207385426716E+00 
    6.2461634396742873E+00 
    6.2383409159784176E+00 
    6.2384000824068435E+00 
    6.2305796422321551E+00 
    6.2305186449259118E+00 
    6.2226966481182684E+00 
    6.2227594371003070E+00 
    6.2149394911514069E+00 
    6.2148749529497191E+00 
    6.2070535933732307E+00 
    6.2071198342827598E+00 
    6.1993005030286525E+00 
    6.1992326108607125E+00 
    6.1914120555999919E+00 
    6.1914815416631219E+00 
    6.1836630035812075E+00 
    6.1835919879842614E+00 
    6.1757724804666205E+00 
    6.1758449530321533E+00 
    6.1680274673021467E+00 
    6.1679536198748330E+00 
    6.1601355103112638E+00 
    6.1602106394771976E+00 
    6.1523945819620618E+00 
    6.1523182768028635E+00 
    6.1445020699199313E+00 
    6.1445794309941242E+00 
    6.1367653524793599E+00 
    6.1366870716548503E+00 
    6.1288735029504231E+00 
    6.1289525496024622E+00 
    6.1211412728410357E+00 
    6.1210616334000152E+00 
    6.1132517938202220E+00 
    6.1133318332691546E+00 
    6.1055246204036235E+00 
    6.1054443926329638E+00 
    6.0976399372987364E+00 
    6.0977201263776477E+00 
    6.0899189789904025E+00 
    6.0898390624152618E+00 
    6.0820425665016709E+00 
    6.0821219872633634E+00 
    6.0743302046177474E+00 
    6.0742514598051445E+00 
    6.0664670253634343E+00 
    6.0665450166731851E+00 
    6.0587682626382895E+00 
    6.0586908942262783E+00 
    6.0509251313388948E+00 
    6.0510024000152116E+00 
    6.0432507177959778E+00 
    6.0431723171254834E+00 
    6.0354355831369064E+00 
    6.0355175820379730E+00 
    6.0278086296568816E+00 
    6.0277185032975575E+00 
    6.0200246336946037E+00 
    6.0201306386760942E+00 
    6.0124903432845587E+00 
    6.0123563249020942E+00 
    6.0047123041490664E+00 
    6.0048905242695430E+00 
    5.9621644099684890E+00 
    5.9619277369998187E+00 
    5.8839844153509118E+00 
    5.8842725240009148E+00 
    5.8063459737837926E+00 
    5.8060231542334755E+00 
    5.7280365817812591E+00 
    5.7283789334172761E+00 
    5.6503753469744575E+00 
    5.6500237257725683E+00 
    5.5719869329706357E+00 
    5.5723419181153115E+00 
    5.4942850698595640E+00 
    5.4939296862282196E+00 
    5.4158554820857319E+00 
    5.4162100534745274E+00 
    5.3381209051639180E+00 
    5.3377673839419435E+00 
    5.2596679140583120E+00 
    5.2600206539599830E+00 
    5.1819115586741837E+00 
    5.1815590875794815E+00 
    5.1034424923064039E+00 
    5.1037953076395599E+00 
    5.0256731710338247E+00 
    5.0253193729662042E+00 
    4.9471907050564861E+00 
    4.9475461124169398E+00 
    4.8694148691420285E+00 
    4.8690572547535904E+00 
    4.7909196257629532E+00 
    4.7912800101338160E+00 
    4.7131419775331462E+00 
    4.7127782953150339E+00 
    4.6346336416126395E+00 
    4.6350011169079108E+00 
    4.5568576993490577E+00 
    4.5564859647199460E+00 
    4.4783355024809950E+00 
    4.4787119377743299E+00 
    4.4005639990638779E+00 
    4.4001824426868712E+00 
    4.3220269324097620E+00 
    4.3224140131676441E+00 
    4.2442620799894835E+00 
    4.2438690851890453E+00 
    4.1657089865788999E+00 
    4.1661082746205143E+00 
    4.0879526513321789E+00 
    4.0875466984360775E+00 
    4.0093822622296367E+00 
    4.0097952466253766E+00 
    3.9316360815511757E+00 
    3.9312157015826452E+00 
    3.8530470242025348E+00 
    3.8534751634604842E+00 
    3.7753124872979060E+00 
    3.7748762233168205E+00 
    3.6967032787007836E+00 
    3.6971480365240068E+00 
    3.6189817837269445E+00 
    3.6185281573604886E+00 
    3.5403508139164965E+00 
    3.5408136909666235E+00 
    3.4626437098805840E+00 
    3.4621711907191948E+00 
    3.3839892177146931E+00 
    3.3844717815695216E+00 
    3.3062978362705517E+00 
    3.3058048120699532E+00 
    3.2276178775563982E+00 