# vtk DataFile Version 2.0
Pressure Field Data 
ASCII 
DATASET UNSTRUCTURED_GRID 

POINTS 1089 float 

    0.0000000000000000E+00     0.0000000000000000E+00     0.0000000000000000E+00 
    1.0000000000000000E+00     0.0000000000000000E+00     0.0000000000000000E+00 
    1.0000000000000000E+00     1.0000000000000000E+00     0.0000000000000000E+00 
    0.0000000000000000E+00     1.0000000000000000E+00     0.0000000000000000E+00 
    3.1249999999941821E-02     0.0000000000000000E+00     0.0000000000000000E+00 
    6.2499999999872928E-02     0.0000000000000000E+00     0.0000000000000000E+00 
    9.3749999999823030E-02     0.0000000000000000E+00     0.0000000000000000E+00 
    1.2499999999977310E-01     0.0000000000000000E+00     0.0000000000000000E+00 
    1.5624999999968331E-01     0.0000000000000000E+00     0.0000000000000000E+00 
    1.8749999999959341E-01     0.0000000000000000E+00     0.0000000000000000E+00 
    2.1874999999950220E-01     0.0000000000000000E+00     0.0000000000000000E+00 
    2.4999999999941089E-01     0.0000000000000000E+00     0.0000000000000000E+00 
    2.8124999999931971E-01     0.0000000000000000E+00     0.0000000000000000E+00 
    3.1249999999922851E-01     0.0000000000000000E+00     0.0000000000000000E+00 
    3.4374999999913730E-01     0.0000000000000000E+00     0.0000000000000000E+00 
    3.7499999999904610E-01     0.0000000000000000E+00     0.0000000000000000E+00 
    4.0624999999895478E-01     0.0000000000000000E+00     0.0000000000000000E+00 
    4.3749999999886358E-01     0.0000000000000000E+00     0.0000000000000000E+00 
    4.6874999999877792E-01     0.0000000000000000E+00     0.0000000000000000E+00 
    4.9999999999869210E-01     0.0000000000000000E+00     0.0000000000000000E+00 
    5.3124999999876910E-01     0.0000000000000000E+00     0.0000000000000000E+00 
    5.6249999999884603E-01     0.0000000000000000E+00     0.0000000000000000E+00 
    5.9374999999892841E-01     0.0000000000000000E+00     0.0000000000000000E+00 
    6.2499999999901090E-01     0.0000000000000000E+00     0.0000000000000000E+00 
    6.5624999999909328E-01     0.0000000000000000E+00     0.0000000000000000E+00 
    6.8749999999917577E-01     0.0000000000000000E+00     0.0000000000000000E+00 
    7.1874999999925815E-01     0.0000000000000000E+00     0.0000000000000000E+00 
    7.4999999999934064E-01     0.0000000000000000E+00     0.0000000000000000E+00 
    7.8124999999942302E-01     0.0000000000000000E+00     0.0000000000000000E+00 
    8.1249999999950551E-01     0.0000000000000000E+00     0.0000000000000000E+00 
    8.4374999999958789E-01     0.0000000000000000E+00     0.0000000000000000E+00 
    8.7499999999967026E-01     0.0000000000000000E+00     0.0000000000000000E+00 
    9.0624999999975264E-01     0.0000000000000000E+00     0.0000000000000000E+00 
    9.3749999999983513E-01     0.0000000000000000E+00     0.0000000000000000E+00 
    9.6874999999991751E-01     0.0000000000000000E+00     0.0000000000000000E+00 
    1.0000000000000000E+00     3.1249999999941821E-02     0.0000000000000000E+00 
    1.0000000000000000E+00     6.2499999999872928E-02     0.0000000000000000E+00 
    1.0000000000000000E+00     9.3749999999823030E-02     0.0000000000000000E+00 
    1.0000000000000000E+00     1.2499999999977310E-01     0.0000000000000000E+00 
    1.0000000000000000E+00     1.5624999999968331E-01     0.0000000000000000E+00 
    1.0000000000000000E+00     1.8749999999959341E-01     0.0000000000000000E+00 
    1.0000000000000000E+00     2.1874999999950220E-01     0.0000000000000000E+00 
    1.0000000000000000E+00     2.4999999999941089E-01     0.0000000000000000E+00 
    1.0000000000000000E+00     2.8124999999931971E-01     0.0000000000000000E+00 
    1.0000000000000000E+00     3.1249999999922851E-01     0.0000000000000000E+00 
    1.0000000000000000E+00     3.4374999999913730E-01     0.0000000000000000E+00 
    1.0000000000000000E+00     3.7499999999904610E-01     0.0000000000000000E+00 
    1.0000000000000000E+00     4.0624999999895478E-01     0.0000000000000000E+00 
    1.0000000000000000E+00     4.3749999999886358E-01     0.0000000000000000E+00 
    1.0000000000000000E+00     4.6874999999877792E-01     0.0000000000000000E+00 
    1.0000000000000000E+00     4.9999999999869210E-01     0.0000000000000000E+00 
    1.0000000000000000E+00     5.3124999999876910E-01     0.0000000000000000E+00 
    1.0000000000000000E+00     5.6249999999884603E-01     0.0000000000000000E+00 
    1.0000000000000000E+00     5.9374999999892841E-01     0.0000000000000000E+00 
    1.0000000000000000E+00     6.2499999999901090E-01     0.0000000000000000E+00 
    1.0000000000000000E+00     6.5624999999909328E-01     0.0000000000000000E+00 
    1.0000000000000000E+00     6.8749999999917577E-01     0.0000000000000000E+00 
    1.0000000000000000E+00     7.1874999999925815E-01     0.0000000000000000E+00 
    1.0000000000000000E+00     7.4999999999934064E-01     0.0000000000000000E+00 
    1.0000000000000000E+00     7.8124999999942302E-01     0.0000000000000000E+00 
    1.0000000000000000E+00     8.1249999999950551E-01     0.0000000000000000E+00 
    1.0000000000000000E+00     8.4374999999958789E-01     0.0000000000000000E+00 
    1.0000000000000000E+00     8.7499999999967026E-01     0.0000000000000000E+00 
    1.0000000000000000E+00     9.0624999999975264E-01     0.0000000000000000E+00 
    1.0000000000000000E+00     9.3749999999983513E-01     0.0000000000000000E+00 
    1.0000000000000000E+00     9.6874999999991751E-01     0.0000000000000000E+00 
    9.6874999999986700E-01     1.0000000000000000E+00     0.0000000000000000E+00 
    9.3749999999973976E-01     1.0000000000000000E+00     0.0000000000000000E+00 
    9.0624999999967670E-01     1.0000000000000000E+00     0.0000000000000000E+00 
    8.7499999999950118E-01     1.0000000000000000E+00     0.0000000000000000E+00 
    8.4374999999971556E-01     1.0000000000000000E+00     0.0000000000000000E+00 
    8.1249999999991318E-01     1.0000000000000000E+00     0.0000000000000000E+00 
    7.8125000000010270E-01     1.0000000000000000E+00     0.0000000000000000E+00 
    7.5000000000034706E-01     1.0000000000000000E+00     0.0000000000000000E+00 
    7.1875000000056688E-01     1.0000000000000000E+00     0.0000000000000000E+00 
    6.8750000000078049E-01     1.0000000000000000E+00     0.0000000000000000E+00 
    6.5625000000097422E-01     1.0000000000000000E+00     0.0000000000000000E+00 
    6.2500000000121403E-01     1.0000000000000000E+00     0.0000000000000000E+00 
    5.9375000000151579E-01     1.0000000000000000E+00     0.0000000000000000E+00 
    5.6250000000164757E-01     1.0000000000000000E+00     0.0000000000000000E+00 
    5.3125000000182365E-01     1.0000000000000000E+00     0.0000000000000000E+00 
    5.0000000000205946E-01     1.0000000000000000E+00     0.0000000000000000E+00 
    4.6875000000194023E-01     1.0000000000000000E+00     0.0000000000000000E+00 
    4.3750000000182099E-01     1.0000000000000000E+00     0.0000000000000000E+00 
    4.0625000000169093E-01     1.0000000000000000E+00     0.0000000000000000E+00 
    3.7500000000156092E-01     1.0000000000000000E+00     0.0000000000000000E+00 
    3.4375000000143069E-01     1.0000000000000000E+00     0.0000000000000000E+00 
    3.1250000000130068E-01     1.0000000000000000E+00     0.0000000000000000E+00 
    2.8125000000117062E-01     1.0000000000000000E+00     0.0000000000000000E+00 
    2.5000000000104050E-01     1.0000000000000000E+00     0.0000000000000000E+00 
    2.1875000000091041E-01     1.0000000000000000E+00     0.0000000000000000E+00 
    1.8750000000078040E-01     1.0000000000000000E+00     0.0000000000000000E+00 
    1.5625000000065031E-01     1.0000000000000000E+00     0.0000000000000000E+00 
    1.2500000000052031E-01     1.0000000000000000E+00     0.0000000000000000E+00 
    9.3750000000390132E-02     1.0000000000000000E+00     0.0000000000000000E+00 
    6.2500000000260125E-02     1.0000000000000000E+00     0.0000000000000000E+00 
    3.1250000000130007E-02     1.0000000000000000E+00     0.0000000000000000E+00 
    0.0000000000000000E+00     9.6874999999986700E-01     0.0000000000000000E+00 
    0.0000000000000000E+00     9.3749999999973976E-01     0.0000000000000000E+00 
    0.0000000000000000E+00     9.0624999999967670E-01     0.0000000000000000E+00 
    0.0000000000000000E+00     8.7499999999950118E-01     0.0000000000000000E+00 
    0.0000000000000000E+00     8.4374999999971556E-01     0.0000000000000000E+00 
    0.0000000000000000E+00     8.1249999999991318E-01     0.0000000000000000E+00 
    0.0000000000000000E+00     7.8125000000010270E-01     0.0000000000000000E+00 
    0.0000000000000000E+00     7.5000000000034706E-01     0.0000000000000000E+00 
    0.0000000000000000E+00     7.1875000000056688E-01     0.0000000000000000E+00 
    0.0000000000000000E+00     6.8750000000078049E-01     0.0000000000000000E+00 
    0.0000000000000000E+00     6.5625000000097422E-01     0.0000000000000000E+00 
    0.0000000000000000E+00     6.2500000000121403E-01     0.0000000000000000E+00 
    0.0000000000000000E+00     5.9375000000151579E-01     0.0000000000000000E+00 
    0.0000000000000000E+00     5.6250000000164757E-01     0.0000000000000000E+00 
    0.0000000000000000E+00     5.3125000000182365E-01     0.0000000000000000E+00 
    0.0000000000000000E+00     5.0000000000205946E-01     0.0000000000000000E+00 
    0.0000000000000000E+00     4.6875000000194023E-01     0.0000000000000000E+00 
    0.0000000000000000E+00     4.3750000000182099E-01     0.0000000000000000E+00 
    0.0000000000000000E+00     4.0625000000169093E-01     0.0000000000000000E+00 
    0.0000000000000000E+00     3.7500000000156092E-01     0.0000000000000000E+00 
    0.0000000000000000E+00     3.4375000000143069E-01     0.0000000000000000E+00 
    0.0000000000000000E+00     3.1250000000130068E-01     0.0000000000000000E+00 
    0.0000000000000000E+00     2.8125000000117062E-01     0.0000000000000000E+00 
[...]
CELL_DATA 1024 
SCALARS Pressure float 1 
LOOKUP_TABLE default 

    1.0156224569926349E+00 
    1.0468521159137658E+00 
    1.0468063656176787E+00 
    1.0156072019285010E+00 
    1.0155767066965431E+00 
    1.0467149096998813E+00 
    1.0465778374655264E+00 
    1.0155310010748368E+00 
    1.0154701296941460E+00 
    1.0463952827633245E+00 
    1.0461674238548444E+00 
    1.0153941519943412E+00 
    1.0153031421663568E+00 
    1.0458944832404435E+00 
    1.0455767274419998E+00 
    1.0151971890797451E+00 
    1.0150763961958973E+00 
    1.0452144667426579E+00 
    1.0448080548838432E+00 
    1.0149408814670147E+00 
    1.0147907772209301E+00 
    1.0443578887198390E+00 
    1.0438644078302648E+00 
    1.0146262300318929E+00 
    1.0144474005774402E+00 
    1.0433280940908347E+00 
    1.0427494712028140E+00 
    1.0142544634814998E+00 
    1.0140476071438718E+00 
    1.0421291041816332E+00 
    1.0414675988051603E+00 
    1.0138270335562589E+00 
    1.0135929581050285E+00 
    1.0407656010221744E+00 
    1.0400237963215981E+00 
    1.0133456093608859E+00 
    1.0130852288556806E+00 
    1.0392429090631277E+00 
    1.0384237017699205E+00 
    1.0128120708465582E+00 
    1.0125264020676792E+00 
    1.0375669743839964E+00 
    1.0366735634851079E+00 
    1.0122285014697567E+00 
    1.0119186599476704E+00 
    1.0357443414738368E+00 
    1.0347802157197079E+00 
    1.0115971800564081E+00 
    1.0112643757156281E+00 
    1.0337821276751582E+00 
    1.0327510519562257E+00 
    1.0109205719031213E+00 
    1.0105661043374758E+00 
    1.0316879953908520E+00 
    1.0305939960357329E+00 
    1.0102013191502546E+00 
    1.0098265725480002E+00 
    1.0294701221626674E+00 
    1.0283174712154202E+00 
    1.0094422304644104E+00 
    1.0090486682030093E+00 
    1.0271371687380859E+00 
    1.0259303672760030E+00 
    1.0086462700706660E+00 
    1.0780360245388028E+00 
    1.1091437323101740E+00 
    1.1090371553077847E+00 
    1.0779598236851475E+00 
    1.0778074963866615E+00 
    1.1088241053736319E+00 
    1.1085047905473573E+00 
    1.0775791913883683E+00 
    1.0772751316262246E+00 
    1.1080795226344691E+00 
    1.1075487169018661E+00 
    1.0768956140094266E+00 
    1.0764410091304875E+00 
    1.1069128916723385E+00 
    1.1061726678184332E+00 
    1.0759117609033566E+00 
    1.0753083861299462E+00 
    1.1053287681561812E+00 
    1.1043820167392815E+00 
    1.0746314739954830E+00 
    1.0738816854931788E+00 
    1.1033333380544263E+00 
    1.1021837561185548E+00 
    1.0730597527787822E+00 
    1.0721664784556404E+00 
    1.1009343934789189E+00 
    1.0995864701169338E+00 
    1.0712027347909705E+00 
    1.0701694628641065E+00 
    1.0981413022568889E+00 
    1.0966003010806757E+00 
    1.0690676716475496E+00 
    1.0678984370217306E+00 
    1.0949649713497946E+00 
    1.0932369099359753E+00 
    1.0666629007244204E+00 
    1.0653622692358404E+00 
    1.0914178042618612E+00 
    1.0895094306532722E+00 
    1.0639978126005678E+00 
    1.0625708631873518E+00 
    1.0875136526046505E+00 
    1.0854324189593914E+00 
    1.0610828143880782E+00 
    1.0595351192571467E+00 
    1.0832677620068301E+00 
    1.0810217954977457E+00 
    1.0579292890925880E+00 
    1.0562668919603062E+00 
    1.0786967125803197E+00 
    1.0762947836585639E+00 
    1.0545495511628897E+00 
    1.0527789436544832E+00 
    1.0738183541753084E+00 
    1.0712698423219185E+00 
    1.0509567984032708E+00 
    1.0490848947031590E+00 
    1.0686517366769566E+00 
    1.0659665937761538E+00 
    1.0471650604363434E+00 
    1.0451991702884147E+00 
    1.0632170356159985E+00 
    1.0604057470933732E+00 
    1.0431891439177403E+00 
    1.1401448630791298E+00 
    1.1710091447675708E+00 
    1.1708421572398053E+00 
    1.1400080139986468E+00 
    1.1397344494684734E+00 
    1.1705083452447342E+00 
    1.1700080347441051E+00 
    1.1393244366197270E+00 
    1.1387783758229946E+00 
    1.1693417142826301E+00 
    1.1685100345109323E+00 
    1.1380968002973768E+00 
    1.1372803755898078E+00 
    1.1675138075501941E+00 
    1.1663540061991369E+00 
    1.1363298989251598E+00 
    1.1352462984277656E+00 
    1.1650317629840981E+00 
    1.1635483690531374E+00 
    1.1340306322151221E+00 
    1.1326840873646558E+00 
    1.1619052729152555E+00 
    1.1601040790259467E+00 
    1.1312079787545615E+00 
    1.1296037477798473E+00 
    1.1581465462204776E+00 
    1.1560345859964127E+00 
    1.1278729609448359E+00 
    1.1260173083335006E+00 
    1.1537702606470708E+00 
    1.1513557812477291E+00 
    1.1240386019591266E+00 
    1.1219387739949129E+00 
    1.1487935054965552E+00 
    1.1460859354123389E+00 
    1.1197198748872323E+00 
    1.1173840713534051E+00 
    1.1432357148913117E+00 
    1.1402456271254435E+00 
    1.1149336442659432E+00 
    1.1123709864253115E+00 
    1.1371185918846942E+00 
    1.1338576626659098E+00 
    1.1096986002234022E+00 
    1.1069190951999901E+00 
    1.1304660237111335E+00 
    1.1269469868982469E+00 
    1.1040351854945616E+00 
    1.1010496871960029E+00 
    1.1233039885069793E+00 
    1.1195405858634366E+00 
    1.0979655155927379E+00 
    1.0947856823259980E+00 
    1.1156604538664341E+00 
    1.1116673813990201E+00 
    1.0915132924490056E+00 
    1.0881515413949259E+00 
    1.1075652676286767E+00 
    1.1033581181998853E+00 
    1.0847037118566116E+00 
    1.0811731705811130E+00 
    1.0990500413226849E+00 
    1.0946452437610363E+00 
    1.0775633650820706E+00 
    1.2017064389282159E+00 
    1.2322067701742605E+00 
    1.2319800242038421E+00 
    1.2015094760136529E+00 
    1.2011157425154326E+00 
    1.2315267536765515E+00 
    1.2308474012033668E+00 
    1.2005256229076344E+00 
    1.1997396934320401E+00 
    1.2299426301604490E+00 
    1.2288133240413672E+00 
    1.1987587215354454E+00 
    1.1975836651202594E+00 
    1.2274605855943819E+00 
    1.2258857357456301E+00 
    1.1962156716091306E+00 
    1.1946560768245078E+00 
    1.2240903123092635E+00 
    1.2220760684857990E+00 
    1.1929064036842305E+00 
    1.1909683607144281E+00 
    1.2198449711501476E+00 
    1.2173991989309949E+00 
    1.1888438403811714E+00 
    1.1865349172425124E+00 
    1.2147411400834081E+00 
    1.2118733901567433E+00 
    1.1840438459227125E+00 
    1.1813730589106417E+00 
    1.2087987494601378E+00 
    1.2055202203280542E+00 
    1.1785251641844934E+00 
    1.1755029426651484E+00 
    1.2020410041885643E+00 
    1.1983644984371871E+00 
    1.1723093455006346E+00 
    1.1689474911843767E+00 
    1.1944942931193860E+00 
    1.1904341674249754E+00 
    1.1654206625100627E+00 
    1.1617323033660418E+00 
    1.1861880859977945E+00 
    1.1817601950642993E+00 
    1.1578860153724255E+00 
    1.1538855543641668E+00 
    1.1771548183848437E+00 
    1.1723764530316008E+00 
    1.1497348267235512E+00 
    1.1454378855656806E+00 
    1.1674297649972474E+00 
    1.1623195846387022E+00 
    1.1409989267806753E+00 
    1.1364222849364582E+00 
    1.1570509019603643E+00 
    1.1516288617414576E+00 
    1.1317124290461233E+00 
    1.1268739582039990E+00 
    1.1460587585122197E+00 
    1.1403460313839258E+00 
    1.1219115970947511E+00 
    1.1168301913798102E+00 
    1.1344962587376926E+00 
    1.1285151527772364E+00 
    1.1116347029656242E+00 
    1.2624803554498432E+00 
    1.2924976331126936E+00 
    1.2922120141377809E+00 
    1.2622240478371607E+00 
    1.2617116828917774E+00 
    1.2916410550899786E+00 
    1.2907853135011078E+00 
    1.2609437609293674E+00 
    1.2599210318126950E+00 
    1.2896456249883075E+00 
    1.2882231024380697E+00 
    1.2586444942193871E+00 
    1.2571153946667395E+00 
    1.2865191349195242E+00 
    1.2845353863280355E+00 
    1.2553352262945165E+00 
    1.2533057274069237E+00 
    1.2822737937604387E+00 
    1.2797365656234962E+00 
    1.2510288797751830E+00 
    1.2485069067023686E+00 
    1.2769261794774258E+00 
    1.2738453796166063E+00 
    1.2457422708523871E+00 
    1.2427376718452292E+00 
    1.2704971743898197E+00 
    1.2668848332626499E+00 
    1.2394960436208369E+00 
    1.2360205515741598E+00 
    1.2630118836249051E+00 
    1.2588821073461813E+00 
    1.2323145894642014E+00 
    1.2283817761000835E+00 
    1.2544995370829448E+00 
    1.2498684523406860E+00 
    1.2242259518073175E+00 
    1.2198511746777876E+00 
    1.2449933752950526E+00 
    1.2398790663760479E+00 
    1.2152617166071193E+00 
    1.2104620591232342E+00 
    1.2345305196195402E+00 
    1.2289529577906706E+00 
    1.2054568890102140E+00 
    1.2002510937317343E+00 
    1.2231518272839121E+00 
    1.2171327928047579E+00 
    1.1948497566585410E+00 
    1.1892581521046233E+00 
    1.2109017318382314E+00 
    1.2044647289096237E+00 
    1.1834817401769371E+00 
    1.1775261614437023E+00 
    1.1978280696430570E+00 
    1.1909982346236783E+00 
    1.1713972314264838E+00 
    1.1651009349214090E+00 
    1.1839818930694541E+00 
    1.1767858963188402E+00 
    1.1586434201551634E+00 
    1.1520309927813543E+00 
    1.1694172711405715E+00 
    1.1618832128720868E+00 
    1.1452701097230977E+00 
    1.3222292918005756E+00 
    1.3516462990533351E+00 
    1.3513029224099120E+00 
    1.3219146403655144E+00 
    1.3212856447471142E+00 
    1.3506165044244607E+00 
    1.3495877153724947E+00 
    1.3203429191489215E+00 
    1.3190873841264854E+00 
    1.3482175598490649E+00 
    1.3465073757877875E+00 
    1.3175202656884477E+00 
    1.3156430940993689E+00 
    1.3444588331543765E+00 
    1.3420739323159483E+00 
    1.3134577023854495E+00 
    1.3109662245446114E+00 
    1.3393550020876996E+00 
    1.3363046974588570E+00 
    1.3081710934626853E+00 
    1.3050750385377379E+00 
    1.3329259970001259E+00 
    1.3292221999551668E+00 
    1.3016810830148626E+00 
    1.2979925410340312E+00 
    1.3251969230189393E+00 
    1.3208540968060620E+00 
    1.2940130143938922E+00 
    1.2897463890346761E+00 
    1.3161979620126323E+00 
    1.3112330652752602E+00 
    1.2851968312436401E+00 
    1.2803687835867736E+00 
    1.3059642547313672E+00 
    1.3003966752850382E+00 
    1.2752669605706819E+00 
    1.2698963440389484E+00 
    1.2945357635831067E+00 
    1.2883872427063883E+00 
    1.2642621783074752E+00 
    1.2583699650434859E+00 
    1.2819571165811767E+00 
    1.2752516641165124E+00 
    1.2522254578932399E+00 
    1.2458346568636955E+00 
    1.2682774330729332E+00 
    1.2610412336686985E+00 
    1.2392038024636041E+00 
    1.2323393696097595E+00 
    1.2535501319297260E+00 
    1.2458114427897373E+00 
    1.2252480613043522E+00 
    1.2179368020896006E+00 
    1.2378327229473500E+00 
    1.2296217634870887E+00 
    1.2104127312860540E+00 
    1.2026831960211382E+00 
    1.2211865822714953E+00 
    1.2125354161118769E+00 
    1.1947557440548651E+00 
    1.1866381164095756E+00 
    1.2036767127252042E+00 
    1.1946191224849991E+00 
    1.1783382398109070E+00 
    1.3807199296626047E+00 
    1.4094217937214824E+00 
    1.4090220002879934E+00 
    1.3803481631122851E+00 
    1.3796049930352965E+00 
    1.4082228038124360E+00 
    1.4070249846966063E+00 
    1.3784911451246074E+00 
    1.3770077070338005E+00 
    1.4054297125905435E+00 
    1.4034385452503872E+00 
    1.3751561273149970E+00 
    1.3729382140043707E+00 
    1.4010534270172545E+00 
    1.3982766869186238E+00 
    1.3703561328566300E+00 
    1.3674124052301977E+00 
    1.3951110363940786E+00 
    1.3915595666476346E+00 
    1.3641099056251442E+00 
    1.3604518588762899E+00 
    1.3876257456292291E+00 
    1.3833134146483288E+00 
    1.3564418370042068E+00 
    1.3520837557272019E+00 
    1.3786267846229554E+00 
    1.3735704319677948E+00 
    1.3473818706376839E+00 
    1.3423407730466508E+00 
    1.3681492941254074E+00 
    1.3623686647448980E+00 
    1.3369653855003514E+00 
    1.3312609569735148E+00 
    1.3562341885127687E+00 
    1.3497518556409585E+00 
    1.3252330577437941E+00 
    1.3188875739524799E+00 
    1.3429279960174991E+00 
    1.3357692730255097E+00 
    1.3122307018568100E+00 
    1.3052689417794163E+00 
    1.3282826770365062E+00 
    1.3204755185844219E+00 
    1.2980090917608713E+00 
    1.2904582409215166E+00 
    1.3123554212269957E+00 
    1.3039303141014966E+00 
    1.2826237625390564E+00 
    1.2745133068486771E+00 
    1.2952084241820556E+00 
    1.2861982682461663E+00 
    1.2661347935727245E+00 
    1.2574964041872259E+00 
    1.2769086445581954E+00 
    1.2673486242780267E+00 
    1.2486065739328207E+00 
    1.2394739835778590E+00 
    1.2575275426031955E+00 
    1.2474549896532885E+00 
    1.2301075509418373E+00 
    1.2205164221873037E+00 
    1.2371408011053586E+00 
    1.2265950485894885E+00 
    1.2107099628887226E+00 
    1.4377238643467942E+00 
    1.4655985050468692E+00 
    1.4651438560081140E+00 
    1.4372964344216386E+00 
    1.4364419919493077E+00 
    1.4642350018875832E+00 
    1.4628728301659017E+00 
    1.4351613712783760E+00 
    1.4334558229131964E+00 
    1.4610586709806408E+00 
    1.4587942958274573E+00 
    1.4313270122928046E+00 
    1.4287770181646442E+00 
    1.4560819158302611E+00 
    1.4529241795820893E+00 
    1.4258083305547071E+00 
    1.4224238483360647E+00 
    1.4493241705588005E+00 
    1.4452854041081125E+00 
    1.4186268763981678E+00 
    1.4144211224196772E+00 
    1.4408118240169236E+00 
    1.4359077986602751E+00 
    1.4098106932479806E+00 
    1.4048000908889240E+00 
    1.4305781167357057E+00 
    1.4248279825871717E+00 
    1.3993942081106807E+00 
    1.3935983236660452E+00 
    1.4186630111230896E+00 
    1.4120892223334718E+00 
    1.3874180971378181E+00 
    1.3808595634123328E+00 
    1.4051130354115169E+00 
    1.3977412624853662E+00 
    1.3739291267864755E+00 
    1.3666335547139901E+00 
    1.3899811019661754E+00 
    1.3818401315189992E+00 
    1.3589799711971970E+00 
    1.3509758498305169E+00 
    1.3733263006633245E+00 
    1.3644479230104998E+00 
    1.3426290065026318E+00 
    1.3339475917644030E+00 
    1.3552136681456337E+00 
    1.3456325531618945E+00 
    1.3249400828699962E+00 
    1.3156152754989865E+00 
    1.3357139338554689E+00 
    1.3254674955897880E+00 
    1.3059822751675272E+00 
    1.2960504883369668E+00 
    1.3149032438379327E+00 
    1.3040314944124600E+00 
    1.2858296132286009E+00 
    1.2753296303534889E+00 
    1.2928628633921573E+00 
    1.2814082567556784E+00 
    1.2645607927667188E+00 
    1.2535336160554753E+00 
    1.2696788597320454E+00 
    1.2576861258784013E+00 
    1.2422588680706828E+00 
    1.4930184967081699E+00 
    1.5199570641741604E+00 
    1.5194493349248857E+00 
    1.4925370725128795E+00 
    1.4915746942247674E+00 
    1.5184343722152525E+00 
    1.5169131671391221E+00 
    1.4901323015899000E+00 
    1.4882113030802075E+00 
    1.5148872051274367E+00 
    1.5123584644977199E+00 
    1.4858135745181353E+00 
    1.4829414572449338E+00 
    1.5093294145222829E+00 
    1.5058030130170228E+00 
    1.4795977558343791E+00 
    1.4757857353541552E+00 
    1.5017827034531652E+00 
    1.4972724115947731E+00 
    1.4715091181775695E+00 
    1.4667720803487183E+00 
    1.4922765416653052E+00 
    1.4867999720469660E+00 
    1.4615792475046518E+00 
    1.4559356903585197E+00 
    1.4808480505170487E+00 
    1.4744265890259234E+00 
    1.4498469197481052E+00 
    1.4433188812545832E+00 
    1.4675418580217627E+00 
    1.4602005803275568E+00 
    1.4363579493967604E+00 
    1.4289709214064694E+00 
    1.4524099245763928E+00 
    1.4441774982114026E+00 
    1.4211650105911804E+00 
    1.4129478392903339E+00 
    1.4355113400572224E+00 
    1.4264199124702222E+00 
    1.4043274314322567E+00 
    1.3953122046989312E+00 
    1.4169120930751558E+00 
    1.4069971660963119E+00 
    1.3859109623062715E+00 
    1.3761328844079324E+00 
    1.3966848132916263E+00 
    1.3859851044986087E+00 
    1.3659875191310440E+00 
    1.3554847732526301E+00 
    1.3749084878013189E+00 
    1.3634657793279881E+00 
    1.3446349025258060E+00 
    1.3334485016652107E+00 
    1.3516681526892542E+00 
    1.3395271280673215E+00 
    1.3219364940014477E+00 
    1.3101101208146091E+00 
    1.3270545609666657E+00 
    1.3142626306373955E+00 
    1.2979809303574124E+00 
    1.2855607665785316E+00 
    1.3011638281824245E+00 
    1.2877709443600542E+00 
    1.2728617575571206E+00 
    1.5463879023907969E+00 
    1.5722852020931000E+00 
    1.5717263753051520E+00 
    1.5458543638765334E+00 
    1.5447878078392407E+00 
    1.5706092674140704E+00 
    1.5689349692567527E+00 
    1.5431892757527890E+00 
    1.5410603285566344E+00 
    1.5667051157569372E+00 
    1.5639218843287253E+00 
    1.5384030451315849E+00 
    1.5352200202698101E+00 
    1.5605879927503739E+00 
    1.5567066965104326E+00 
    1.5315143621410710E+00 
    1.5272896892576435E+00 
    1.5522817856288127E+00 
    1.5473175809558979E+00 
    1.5225501269409047E+00 
    1.5173003032930250E+00 
    1.5418189299533074E+00 
    1.5357912019604316E+00 
    1.5115453446777052E+00 
    1.5052908707143700E+00 
    1.5292402829513629E+00 
    1.5221725697873434E+00 
    1.4985429887907049E+00 
    1.4913082880988957E+00 
    1.5145949639703367E+00 
    1.5065148649038298E+00 
    1.4835938332013934E+00 
    1.4754071571324905E+00 
    1.4979401626674400E+00 
    1.4888792303123868E+00 
    1.4667562540424386E+00 
    1.4576495713912956E+00 
    1.4793409156853474E+00 
    1.4693345327886873E+00 
    1.4480960017001268E+00 
    1.4381048738676085E+00 
    1.4588698526854929E+00 
    1.4479570939582964E+00 
    1.4276859440605161E+00 
    1.4168493861869944E+00 
    1.4366069127308025E+00 
    1.4248303922623640E+00 
    1.4056057819619070E+00 
    1.3939661105739727E+00 
    1.4126390321253670E+00 
    1.4000447369760944E+00 
    1.3819417379647732E+00 
    1.3695444057301041E+00 
    1.3870598049300309E+00 
    1.3736969155529619E+00 
    1.3567862196545071E+00 
    1.3436796378901446E+00 
    1.3599691174795630E+00 
    1.3458898156716868E+00 
    1.3302374587916861E+00 
    1.3164728084189359E+00 
    1.3314727583286514E+00 
    1.3167320234622872E+00 
    1.3023991277193905E+00 
    1.5976236750073927E+00 
    1.6223785785448743E+00 
    1.6217708364249024E+00 
    1.5970401056306360E+00 
    1.5958735367226637E+00 
    1.6205559456347820E+00 
    1.6187350924947528E+00 
    1.5941251074182179E+00 
    1.5917965250288431E+00 
    1.6163100550370055E+00 
    1.6132832012694651E+00 
    1.5888900633757264E+00 
    1.5854085605693480E+00 
    1.6096574868634688E+00 
    1.6054364522676043E+00 
    1.5813554162381167E+00 
    1.5767345882086885E+00 
    1.6006242192505225E+00 
    1.5952254868760993E+00 
    1.5715505886412173E+00 
    1.5658084796233069E+00 
    1.5892455269148802E+00 
    1.5826901786962861E+00 
    1.5595138682269682E+00 
    1.5526729010334082E+00 
    1.5755658434066060E+00 
    1.5678794778383485E+00 
    1.5452922581309978E+00 
    1.5373791465922806E+00 
    1.5596385875970511E+00 
    1.5508512197721842E+00 
    1.5289412934363862E+00 
    1.5199869380837288E+00 
    1.5415259550793039E+00 
    1.5316718994811303E+00 
    1.5105248243103531E+00 
    1.5005641917097829E+00 
    1.5212986752957298E+00 
    1.5104164118004828E+00 
    1.4901147666707188E+00 
    1.4791867528793810E+00 
    1.4990357353410173E+00 
    1.4871677589547627E+00 
    1.4677908213557851E+00 
    1.4559381000336722E+00 
    1.4748240715192575E+00 
    1.4620167264358064E+00 
    1.4436401628942688E+00 
    1.4309090186644919E+00 
    1.4487582298595392E+00 
    1.4350615284873618E+00 
    1.4177570990906310E+00 
    1.4041972467989579E+00 
    1.4209399969157275E+00 
    1.4064074245805698E+00 
    1.3902427027551214E+00 
    1.3759070933345401E+00 
    1.3914780022921260E+00 
    1.3761663083779025E+00 
    1.3612044170165318E+00 
    1.3461490307150399E+00 
    1.3604872944471873E+00 
    1.3444562707910048E+00 
    1.3307556357592887E+00 
    1.6465257399623385E+00 
    1.6700415799664445E+00 
    1.6693872957344227E+00 
    1.6458944185490183E+00 
    1.6446323921969894E+00 
    1.6680793661678019E+00 
    1.6661190684376075E+00 