# vtk DataFile Version 2.0
Pressure Field Data 
ASCII 
DATASET UNSTRUCTURED_GRID 

POINTS 242 float 

    0.0000000000000000E+00     0.0000000000000000E+00     0.0000000000000000E+00 
    1.0000000000000000E+00     0.0000000000000000E+00     0.0000000000000000E+00 
    0.0000000000000000E+00     3.7500000000000000E-01     0.0000000000000000E+00 
    1.0000000000000000E+00     5.7499999999999996E-01     0.0000000000000000E+00 
    0.0000000000000000E+00     4.2499999999999999E-01     0.0000000000000000E+00 
    1.0000000000000000E+00     6.2500000000000000E-01     0.0000000000000000E+00 
    0.0000000000000000E+00     1.0000000000000000E+00     0.0000000000000000E+00 
    1.0000000000000000E+00     1.0000000000000000E+00     0.0000000000000000E+00 
    1.0000000000000001E-01     0.0000000000000000E+00     0.0000000000000000E+00 
    2.0000000000000001E-01     0.0000000000000000E+00     0.0000000000000000E+00 
    2.9999999999999999E-01     0.0000000000000000E+00     0.0000000000000000E+00 
    4.0000000000000002E-01     0.0000000000000000E+00     0.0000000000000000E+00 
    5.0000000000000000E-01     0.0000000000000000E+00     0.0000000000000000E+00 
    5.9999999999999998E-01     0.0000000000000000E+00     0.0000000000000000E+00 
    6.9999999999999996E-01     0.0000000000000000E+00     0.0000000000000000E+00 
    8.0000000000000004E-01     0.0000000000000000E+00     0.0000000000000000E+00 
    9.0000000000000002E-01     0.0000000000000000E+00     0.0000000000000000E+00 
    1.0000000000000000E+00     5.7500000000000002E-02     0.0000000000000000E+00 
    1.0000000000000000E+00     1.1500000000000000E-01     0.0000000000000000E+00 
    1.0000000000000000E+00     1.7249999999999999E-01     0.0000000000000000E+00 
    1.0000000000000000E+00     2.3000000000000001E-01     0.0000000000000000E+00 
    1.0000000000000000E+00     2.8749999999999998E-01     0.0000000000000000E+00 
    1.0000000000000000E+00     3.4499999999999997E-01     0.0000000000000000E+00 
    1.0000000000000000E+00     4.0250000000000002E-01     0.0000000000000000E+00 
    1.0000000000000000E+00     4.6000000000000002E-01     0.0000000000000000E+00 
    1.0000000000000000E+00     5.1749999999999996E-01     0.0000000000000000E+00 
    9.0000000000000002E-01     5.5500000000000005E-01     0.0000000000000000E+00 
    8.0000000000000004E-01     5.3500000000000003E-01     0.0000000000000000E+00 
    6.9999999999999996E-01     5.1500000000000001E-01     0.0000000000000000E+00 
    5.9999999999999998E-01     4.9500000000000000E-01     0.0000000000000000E+00 
    5.0000000000000000E-01     4.7499999999999998E-01     0.0000000000000000E+00 
    4.0000000000000002E-01     4.5500000000000002E-01     0.0000000000000000E+00 
    2.9999999999999999E-01     4.3500000000000000E-01     0.0000000000000000E+00 
    2.0000000000000001E-01     4.1499999999999998E-01     0.0000000000000000E+00 
    1.0000000000000001E-01     3.9500000000000002E-01     0.0000000000000000E+00 
    0.0000000000000000E+00     3.3750000000000002E-01     0.0000000000000000E+00 
    0.0000000000000000E+00     2.9999999999999999E-01     0.0000000000000000E+00 
    0.0000000000000000E+00     2.6250000000000001E-01     0.0000000000000000E+00 
    0.0000000000000000E+00     2.2500000000000001E-01     0.0000000000000000E+00 
    0.0000000000000000E+00     1.8750000000000000E-01     0.0000000000000000E+00 
    0.0000000000000000E+00     1.4999999999999999E-01     0.0000000000000000E+00 
    0.0000000000000000E+00     1.1250000000000000E-01     0.0000000000000000E+00 
    0.0000000000000000E+00     7.4999999999999997E-02     0.0000000000000000E+00 
    0.0000000000000000E+00     3.7499999999999999E-02     0.0000000000000000E+00 
    9.0000000000000002E-01     6.0499999999999998E-01     0.0000000000000000E+00 
    8.0000000000000004E-01     5.8499999999999996E-01     0.0000000000000000E+00 
    6.9999999999999996E-01     5.6499999999999995E-01     0.0000000000000000E+00 
    5.9999999999999998E-01     5.4500000000000004E-01     0.0000000000000000E+00 
    5.0000000000000000E-01     5.2500000000000002E-01     0.0000000000000000E+00 
    4.0000000000000002E-01     5.0500000000000000E-01     0.0000000000000000E+00 
    2.9999999999999999E-01     4.8499999999999999E-01     0.0000000000000000E+00 
    2.0000000000000001E-01     4.6500000000000002E-01     0.0000000000000000E+00 
    1.0000000000000001E-01     4.4500000000000001E-01     0.0000000000000000E+00 
    1.0000000000000000E+00     6.6249999999999998E-01     0.0000000000000000E+00 
    1.0000000000000000E+00     6.9999999999999996E-01     0.0000000000000000E+00 
    1.0000000000000000E+00     7.3750000000000004E-01     0.0000000000000000E+00 
    1.0000000000000000E+00     7.7500000000000002E-01     0.0000000000000000E+00 
    1.0000000000000000E+00     8.1250000000000000E-01     0.0000000000000000E+00 
    1.0000000000000000E+00     8.4999999999999998E-01     0.0000000000000000E+00 
    1.0000000000000000E+00     8.8749999999999996E-01     0.0000000000000000E+00 
    1.0000000000000000E+00     9.2500000000000004E-01     0.0000000000000000E+00 
    1.0000000000000000E+00     9.6250000000000002E-01     0.0000000000000000E+00 
    9.0000000000000002E-01     1.0000000000000000E+00     0.0000000000000000E+00 
    8.0000000000000004E-01     1.0000000000000000E+00     0.0000000000000000E+00 
    6.9999999999999996E-01     1.0000000000000000E+00     0.0000000000000000E+00 
    5.9999999999999998E-01     1.0000000000000000E+00     0.0000000000000000E+00 
    5.0000000000000000E-01     1.0000000000000000E+00     0.0000000000000000E+00 
    4.0000000000000002E-01     1.0000000000000000E+00     0.0000000000000000E+00 
    2.9999999999999999E-01     1.0000000000000000E+00     0.0000000000000000E+00 
    2.0000000000000001E-01     1.0000000000000000E+00     0.0000000000000000E+00 
    1.0000000000000001E-01     1.0000000000000000E+00     0.0000000000000000E+00 
    0.0000000000000000E+00     9.4250000000000000E-01     0.0000000000000000E+00 
    0.0000000000000000E+00     8.8500000000000001E-01     0.0000000000000000E+00 
    0.0000000000000000E+00     8.2750000000000001E-01     0.0000000000000000E+00 
    0.0000000000000000E+00     7.7000000000000002E-01     0.0000000000000000E+00 
    0.0000000000000000E+00     7.1250000000000002E-01     0.0000000000000000E+00 
    0.0000000000000000E+00     6.5500000000000003E-01     0.0000000000000000E+00 
    0.0000000000000000E+00     5.9750000000000003E-01     0.0000000000000000E+00 
    0.0000000000000000E+00     5.4000000000000004E-01     0.0000000000000000E+00 
    0.0000000000000000E+00     4.8249999999999998E-01     0.0000000000000000E+00 
    9.0000000000000002E-01     4.9950000000000000E-01     0.0000000000000000E+00 
    9.0000000000000002E-01     4.4400000000000001E-01     0.0000000000000000E+00 
    9.0000000000000002E-01     3.8850000000000001E-01     0.0000000000000000E+00 
    9.0000000000000002E-01     3.3300000000000002E-01     0.0000000000000000E+00 
    9.0000000000000002E-01     2.7750000000000002E-01     0.0000000000000000E+00 
    9.0000000000000002E-01     2.2200000000000000E-01     0.0000000000000000E+00 
    9.0000000000000002E-01     1.6650000000000001E-01     0.0000000000000000E+00 
    9.0000000000000002E-01     1.1100000000000000E-01     0.0000000000000000E+00 
    9.0000000000000002E-01     5.5500000000000001E-02     0.0000000000000000E+00 
    8.0000000000000004E-01     4.8149999999999998E-01     0.0000000000000000E+00 
    8.0000000000000004E-01     4.2799999999999999E-01     0.0000000000000000E+00 
    8.0000000000000004E-01     3.7450000000000000E-01     0.0000000000000000E+00 
    8.0000000000000004E-01     3.2100000000000001E-01     0.0000000000000000E+00 
    8.0000000000000004E-01     2.6750000000000002E-01     0.0000000000000000E+00 
    8.0000000000000004E-01     2.1400000000000000E-01     0.0000000000000000E+00 
    8.0000000000000004E-01     1.6050000000000000E-01     0.0000000000000000E+00 
    8.0000000000000004E-01     1.0700000000000000E-01     0.0000000000000000E+00 
    8.0000000000000004E-01     5.3499999999999999E-02     0.0000000000000000E+00 
    6.9999999999999996E-01     4.6350000000000002E-01     0.0000000000000000E+00 
    6.9999999999999996E-01     4.1199999999999998E-01     0.0000000000000000E+00 
    6.9999999999999996E-01     3.6049999999999999E-01     0.0000000000000000E+00 
    6.9999999999999996E-01     3.0900000000000000E-01     0.0000000000000000E+00 
    6.9999999999999996E-01     2.5750000000000001E-01     0.0000000000000000E+00 
    6.9999999999999996E-01     2.0599999999999999E-01     0.0000000000000000E+00 
    6.9999999999999996E-01     1.5450000000000000E-01     0.0000000000000000E+00 
    6.9999999999999996E-01     1.0299999999999999E-01     0.0000000000000000E+00 
    6.9999999999999996E-01     5.1499999999999997E-02     0.0000000000000000E+00 
    5.9999999999999998E-01     4.4550000000000001E-01     0.0000000000000000E+00 
    5.9999999999999998E-01     3.9600000000000002E-01     0.0000000000000000E+00 
    5.9999999999999998E-01     3.4649999999999997E-01     0.0000000000000000E+00 
    5.9999999999999998E-01     2.9699999999999999E-01     0.0000000000000000E+00 
    5.9999999999999998E-01     2.4750000000000000E-01     0.0000000000000000E+00 
    5.9999999999999998E-01     1.9800000000000001E-01     0.0000000000000000E+00 
    5.9999999999999998E-01     1.4849999999999999E-01     0.0000000000000000E+00 
    5.9999999999999998E-01     9.9000000000000005E-02     0.0000000000000000E+00 
    5.9999999999999998E-01     4.9500000000000002E-02     0.0000000000000000E+00 
    5.0000000000000000E-01     4.2749999999999999E-01     0.0000000000000000E+00 
    5.0000000000000000E-01     3.8000000000000000E-01     0.0000000000000000E+00 
    5.0000000000000000E-01     3.3250000000000002E-01     0.0000000000000000E+00 
    5.0000000000000000E-01     2.8499999999999998E-01     0.0000000000000000E+00 
[...]
CELL_DATA 210 
SCALARS Pressure float 1 
LOOKUP_TABLE default 

    8.8581844509207830E+00 
    8.8572117426706871E+00 
    8.8617511412047261E+00 
    8.8704233645320976E+00 
    8.8820805773258513E+00 
    8.8957425245073232E+00 
    8.9105477520375480E+00 
    8.9257157930760318E+00 
    8.9405172447279835E+00 
    8.9542494222617748E+00 
    8.8519122588592403E+00 
    8.8545405456962722E+00 
    8.8574500546866659E+00 
    8.8607058564780186E+00 
    8.8642671829013810E+00 
    8.8680164262979400E+00 
    8.8717794298975754E+00 
    8.8753394945306798E+00 
    8.8784468393577498E+00 
    8.8808247621371930E+00 
    8.8512476408373360E+00 
    8.8506793136129911E+00 
    8.8503274599351158E+00 
    8.8502166170074901E+00 
    8.8503555311017692E+00 
    8.8507380777802407E+00 
    8.8513454452821794E+00 
    8.8521490391225797E+00 
    8.8531137141727250E+00 
    8.8542009936122383E+00 
    8.8523144440855841E+00 
    8.8474209275036042E+00 
    8.8431817233627967E+00 
    8.8396146850717283E+00 
    8.8367281980094976E+00 
    8.8345253619805515E+00 
    8.8330086909559125E+00 
    8.8321860358815751E+00 
    8.8320786835181178E+00 
    8.8327330262926989E+00 
    8.8372584380656249E+00 
    8.8271556149922166E+00 
    8.8185729784924565E+00 
    8.8113739601275540E+00 
    8.8054189683224884E+00 
    8.8005528306789316E+00 
    8.7965880346988570E+00 
    8.7932813701914050E+00 
    8.7902996182920106E+00 
    8.7871658155633448E+00 
    8.4145070784611047E+00 
    8.4071496696177022E+00 
    8.4041514294885573E+00 
    8.4065249718319350E+00 
    8.4157967275445156E+00 
    8.4341862031150505E+00 
    8.4649096365208241E+00 
    8.5127521537676181E+00 
    8.5852071270837040E+00 
    8.6947578319527672E+00 
    7.8317243408811956E+00 
    7.8225113670316375E+00 
    7.8196609468335483E+00 
    7.8247879288354705E+00 
    7.8403555346708682E+00 
    7.8697848869278593E+00 
    7.9174785644427477E+00 
    7.9886737461486819E+00 
    8.0890685254196981E+00 
    8.2243504155047500E+00 
    7.4320676386187898E+00 
    7.4157894955222963E+00 
    7.4044372669970251E+00 
    7.3990189957954291E+00 
    7.4016358946308713E+00 
    7.4158570427857216E+00 
    7.4471716931414091E+00 
    7.5033125565671082E+00 
    7.5938930771031838E+00 
    7.7280311169106417E+00 
    7.2184550323483281E+00 
    7.1971630918063925E+00 
    7.1770836253797432E+00 
    7.1575152195682463E+00 
    7.1382662841021798E+00 
    7.1200699633734663E+00 
    7.1056965065853683E+00 
    7.1024130372051646E+00 
    7.1271221759724694E+00 
    7.2168056543379375E+00 
    7.1829533109881805E+00 
    7.1723213364813612E+00 
    7.1569233690282781E+00 
    7.1366715178181952E+00 
    7.1096372634627940E+00 
    7.0712464417333267E+00 
    7.0123536213374447E+00 
    6.9153056669821886E+00 
    6.7461912147149325E+00 
    6.4397554323631869E+00 
    8.8658939715002489E+00 
    8.8494588454114567E+00 
    8.8519755039643577E+00 
    8.8578033977515620E+00 
    8.8492076302638836E+00 
    8.4266803509965928E+00 
    7.8484541459298107E+00 
    7.4570662431433892E+00 
    7.2517597072239770E+00 
    7.2294461050918288E+00 
    8.6071257941021457E+00 
    8.6809824682453396E+00 
    8.7393196989273392E+00 
    8.7846277644840089E+00 
    8.8189313989768099E+00 
    8.8438771128804099E+00 
    8.8608017497025191E+00 
    8.8707858537218840E+00 
    8.8746945995938891E+00 
    8.8732083603899135E+00 
    8.8175311297718650E+00 
    8.8182708164477130E+00 
    8.8211126227322172E+00 
    8.8250890339428132E+00 
    8.8295105149381712E+00 
    8.8339049149233482E+00 
    8.8379711424070297E+00 
    8.8415442427506186E+00 
    8.8445696993419958E+00 
    8.8470853396882632E+00 
    8.8600243814173734E+00 
    8.8591974450260302E+00 
    8.8583650038589781E+00 
    8.8575411495856127E+00 
    8.8567253780740653E+00 
    8.8559129502146376E+00 
    8.8551013476516900E+00 
    8.8542938840602012E+00 
    8.8535012125861794E+00 
    8.8527412191923585E+00 
    8.9142408603694356E+00 
    8.9108756342077076E+00 
    8.9061708529838768E+00 
    8.9005808964470088E+00 
    8.8944591362793233E+00 
    8.8880788886820064E+00 
    8.8816503561157560E+00 
    8.8753342092049596E+00 
    8.8692523771662319E+00 
    8.8634965392350065E+00 
    9.0932767418996345E+00 
    9.0535785092163401E+00 
    9.0184883514840717E+00 
    8.9874187513815365E+00 
    8.9598789107977161E+00 
    8.9354574333558272E+00 
    8.9138081468065362E+00 
    8.8946385244927821E+00 
    8.8777002365439834E+00 
    8.8627813836172109E+00 
    8.8613845857542426E+00 
    8.7655154551916468E+00 
    8.6927152178382165E+00 
    8.6349017242285626E+00 
    8.5874899449554452E+00 
    8.5478344771738843E+00 
    8.5143543269027333E+00 
    8.4860520527353636E+00 
    8.4622640678202803E+00 
    8.4425543763211461E+00 
    8.3243877546618794E+00 
    8.2868389510412150E+00 
    8.2267642198845898E+00 
    8.1603164633058114E+00 
    8.0955429842221296E+00 
    8.0362547499237635E+00 
    7.9840626369233192E+00 
    7.9394289767530930E+00 
    7.9022115595843010E+00 
    7.8719886015490914E+00 
    8.3169566811941351E+00 
    8.1753942644517679E+00 
    8.0479577892212841E+00 
    7.9320949874653124E+00 
    7.8278770715680324E+00 
    7.7359027560171150E+00 
    7.6565672660802546E+00 
    7.5898403495366527E+00 
    7.5351647246118230E+00 
    7.4913458939036657E+00 
    8.6535606032288026E+00 
    8.3819064334380275E+00 
    8.1517381739996608E+00 
    7.9556365102256033E+00 
    7.7884106622168812E+00 
    7.6465971363951359E+00 
    7.5279300036250643E+00 
    7.4309061320355667E+00 
    7.3542960910663329E+00 
    7.2961053037625652E+00 
    9.3070695965166337E+00 
    8.8691017508255054E+00 
    8.5079196072335392E+00 
    8.2088440382783681E+00 
    7.9604891030081282E+00 
    7.7543878650909956E+00 
    7.5846258979194836E+00 
    7.4476968828994323E+00 
    7.3429585997536080E+00 
    7.2745825799003470E+00 

