# vtk DataFile Version 2.0
Pressure Field Data 
ASCII 
DATASET UNSTRUCTURED_GRID 

POINTS 1089 float 

    0.0000000000000000E+00     0.0000000000000000E+00     0.0000000000000000E+00 
    1.0000000000000000E+00     0.0000000000000000E+00     0.0000000000000000E+00 
    1.0000000000000000E+00     1.0000000000000000E+00     0.0000000000000000E+00 
    0.0000000000000000E+00     1.0000000000000000E+00     0.0000000000000000E+00 
    3.1249999999941821E-02     0.0000000000000000E+00     0.0000000000000000E+00 
    6.2499999999872928E-02     0.0000000000000000E+00     0.0000000000000000E+00 
    9.3749999999823030E-02     0.0000000000000000E+00     0.0000000000000000E+00 
    1.2499999999977310E-01     0.0000000000000000E+00     0.0000000000000000E+00 
    1.5624999999968331E-01     0.0000000000000000E+00     0.0000000000000000E+00 
    1.8749999999959341E-01     0.0000000000000000E+00     0.0000000000000000E+00 
    2.1874999999950220E-01     0.0000000000000000E+00     0.0000000000000000E+00 
    2.4999999999941089E-01     0.0000000000000000E+00     0.0000000000000000E+00 
    2.8124999999931971E-01     0.0000000000000000E+00     0.0000000000000000E+00 
    3.1249999999922851E-01     0.0000000000000000E+00     0.0000000000000000E+00 
    3.4374999999913730E-01     0.0000000000000000E+00     0.0000000000000000E+00 
    3.7499999999904610E-01     0.0000000000000000E+00     0.0000000000000000E+00 
    4.0624999999895478E-01     0.0000000000000000E+00     0.0000000000000000E+00 
    4.3749999999886358E-01     0.0000000000000000E+00     0.0000000000000000E+00 
    4.6874999999877792E-01     0.0000000000000000E+00     0.0000000000000000E+00 
    4.9999999999869210E-01     0.0000000000000000E+00     0.0000000000000000E+00 
    5.3124999999876910E-01     0.0000000000000000E+00     0.0000000000000000E+00 
    5.6249999999884603E-01     0.0000000000000000E+00     0.0000000000000000E+00 
    5.9374999999892841E-01     0.0000000000000000E+00     0.0000000000000000E+00 
    6.2499999999901090E-01     0.0000000000000000E+00     0.0000000000000000E+00 
    6.5624999999909328E-01     0.0000000000000000E+00     0.0000000000000000E+00 
    6.8749999999917577E-01     0.0000000000000000E+00     0.0000000000000000E+00 
    7.1874999999925815E-01     0.0000000000000000E+00     0.0000000000000000E+00 
    7.4999999999934064E-01     0.0000000000000000E+00     0.0000000000000000E+00 
    7.8124999999942302E-01     0.0000000000000000E+00     0.0000000000000000E+00 
    8.1249999999950551E-01     0.0000000000000000E+00     0.0000000000000000E+00 
    8.4374999999958789E-01     0.0000000000000000E+00     0.0000000000000000E+00 
    8.7499999999967026E-01     0.0000000000000000E+00     0.0000000000000000E+00 
    9.0624999999975264E-01     0.0000000000000000E+00     0.0000000000000000E+00 
    9.3749999999983513E-01     0.0000000000000000E+00     0.0000000000000000E+00 
    9.6874999999991751E-01     0.0000000000000000E+00     0.0000000000000000E+00 
    1.0000000000000000E+00     3.1249999999941821E-02     0.0000000000000000E+00 
    1.0000000000000000E+00     6.2499999999872928E-02     0.0000000000000000E+00 
    1.0000000000000000E+00     9.3749999999823030E-02     0.0000000000000000E+00 
    1.0000000000000000E+00     1.2499999999977310E-01     0.0000000000000000E+00 
    1.0000000000000000E+00     1.5624999999968331E-01     0.0000000000000000E+00 
    1.0000000000000000E+00     1.8749999999959341E-01     0.0000000000000000E+00 
    1.0000000000000000E+00     2.1874999999950220E-01     0.0000000000000000E+00 
    1.0000000000000000E+00     2.4999999999941089E-01     0.0000000000000000E+00 
    1.0000000000000000E+00     2.8124999999931971E-01     0.0000000000000000E+00 
    1.0000000000000000E+00     3.1249999999922851E-01     0.0000000000000000E+00 
    1.0000000000000000E+00     3.4374999999913730E-01     0.0000000000000000E+00 
    1.0000000000000000E+00     3.7499999999904610E-01     0.0000000000000000E+00 
    1.0000000000000000E+00     4.0624999999895478E-01     0.0000000000000000E+00 
    1.0000000000000000E+00     4.3749999999886358E-01     0.0000000000000000E+00 
    1.0000000000000000E+00     4.6874999999877792E-01     0.0000000000000000E+00 
    1.0000000000000000E+00     4.9999999999869210E-01     0.0000000000000000E+00 
    1.0000000000000000E+00     5.3124999999876910E-01     0.0000000000000000E+00 
    1.0000000000000000E+00     5.6249999999884603E-01     0.0000000000000000E+00 
    1.0000000000000000E+00     5.9374999999892841E-01     0.0000000000000000E+00 
    1.0000000000000000E+00     6.2499999999901090E-01     0.0000000000000000E+00 
    1.0000000000000000E+00     6.5624999999909328E-01     0.0000000000000000E+00 
    1.0000000000000000E+00     6.8749999999917577E-01     0.0000000000000000E+00 
    1.0000000000000000E+00     7.1874999999925815E-01     0.0000000000000000E+00 
    1.0000000000000000E+00     7.4999999999934064E-01     0.0000000000000000E+00 
    1.0000000000000000E+00     7.8124999999942302E-01     0.0000000000000000E+00 
    1.0000000000000000E+00     8.1249999999950551E-01     0.0000000000000000E+00 
    1.0000000000000000E+00     8.4374999999958789E-01     0.0000000000000000E+00 
    1.0000000000000000E+00     8.7499999999967026E-01     0.0000000000000000E+00 
    1.0000000000000000E+00     9.0624999999975264E-01     0.0000000000000000E+00 
    1.0000000000000000E+00     9.3749999999983513E-01     0.0000000000000000E+00 
    1.0000000000000000E+00     9.6874999999991751E-01     0.0000000000000000E+00 
    9.6874999999986700E-01     1.0000000000000000E+00     0.0000000000000000E+00 
    9.3749999999973976E-01     1.0000000000000000E+00     0.0000000000000000E+00 
    9.0624999999967670E-01     1.0000000000000000E+00     0.0000000000000000E+00 
    8.7499999999950118E-01     1.0000000000000000E+00     0.0000000000000000E+00 
    8.4374999999971556E-01     1.0000000000000000E+00     0.0000000000000000E+00 
    8.1249999999991318E-01     1.0000000000000000E+00     0.0000000000000000E+00 
    7.8125000000010270E-01     1.0000000000000000E+00     0.0000000000000000E+00 
    7.5000000000034706E-01     1.0000000000000000E+00     0.0000000000000000E+00 
    7.1875000000056688E-01     1.0000000000000000E+00     0.0000000000000000E+00 
    6.8750000000078049E-01     1.0000000000000000E+00     0.0000000000000000E+00 
    6.5625000000097422E-01     1.0000000000000000E+00     0.0000000000000000E+00 
    6.2500000000121403E-01     1.0000000000000000E+00     0.0000000000000000E+00 
    5.9375000000151579E-01     1.0000000000000000E+00     0.0000000000000000E+00 
    5.6250000000164757E-01     1.0000000000000000E+00     0.0000000000000000E+00 
    5.3125000000182365E-01     1.0000000000000000E+00     0.0000000000000000E+00 
    5.0000000000205946E-01     1.0000000000000000E+00     0.0000000000000000E+00 
    4.6875000000194023E-01     1.0000000000000000E+00     0.0000000000000000E+00 
    4.3750000000182099E-01     1.0000000000000000E+00     0.0000000000000000E+00 
    4.0625000000169093E-01     1.0000000000000000E+00     0.0000000000000000E+00 
    3.7500000000156092E-01     1.0000000000000000E+00     0.0000000000000000E+00 
    3.4375000000143069E-01     1.0000000000000000E+00     0.0000000000000000E+00 
    3.1250000000130068E-01     1.0000000000000000E+00     0.0000000000000000E+00 
    2.8125000000117062E-01     1.0000000000000000E+00     0.0000000000000000E+00 
    2.5000000000104050E-01     1.0000000000000000E+00     0.0000000000000000E+00 
    2.1875000000091041E-01     1.0000000000000000E+00     0.0000000000000000E+00 
    1.8750000000078040E-01     1.0000000000000000E+00     0.0000000000000000E+00 
    1.5625000000065031E-01     1.0000000000000000E+00     0.0000000000000000E+00 
    1.2500000000052031E-01     1.0000000000000000E+00     0.0000000000000000E+00 
    9.3750000000390132E-02     1.0000000000000000E+00     0.0000000000000000E+00 
    6.2500000000260125E-02     1.0000000000000000E+00     0.0000000000000000E+00 
    3.1250000000130007E-02     1.0000000000000000E+00     0.0000000000000000E+00 
    0.0000000000000000E+00     9.6874999999986700E-01     0.0000000000000000E+00 
    0.0000000000000000E+00     9.3749999999973976E-01     0.0000000000000000E+00 
    0.0000000000000000E+00     9.0624999999967670E-01     0.0000000000000000E+00 
    0.0000000000000000E+00     8.7499999999950118E-01     0.0000000000000000E+00 
    0.0000000000000000E+00     8.4374999999971556E-01     0.0000000000000000E+00 
    0.0000000000000000E+00     8.1249999999991318E-01     0.0000000000000000E+00 
    0.0000000000000000E+00     7.8125000000010270E-01     0.0000000000000000E+00 
    0.0000000000000000E+00     7.5000000000034706E-01     0.0000000000000000E+00 
    0.0000000000000000E+00     7.1875000000056688E-01     0.0000000000000000E+00 
    0.0000000000000000E+00     6.8750000000078049E-01     0.0000000000000000E+00 
    0.0000000000000000E+00     6.5625000000097422E-01     0.0000000000000000E+00 
    0.0000000000000000E+00     6.2500000000121403E-01     0.0000000000000000E+00 
    0.0000000000000000E+00     5.9375000000151579E-01     0.0000000000000000E+00 
    0.0000000000000000E+00     5.6250000000164757E-01     0.0000000000000000E+00 
    0.0000000000000000E+00     5.3125000000182365E-01     0.0000000000000000E+00 
    0.0000000000000000E+00     5.0000000000205946E-01     0.0000000000000000E+00 
    0.0000000000000000E+00     4.6875000000194023E-01     0.0000000000000000E+00 
    0.0000000000000000E+00     4.3750000000182099E-01     0.0000000000000000E+00 
    0.0000000000000000E+00     4.0625000000169093E-01     0.0000000000000000E+00 
    0.0000000000000000E+00     3.7500000000156092E-01     0.0000000000000000E+00 
    0.0000000000000000E+00     3.4375000000143069E-01     0.0000000000000000E+00 
    0.0000000000000000E+00     3.1250000000130068E-01     0.0000000000000000E+00 
    0.0000000000000000E+00     2.8125000000117062E-01     0.0000000000000000E+00 
[...]
CELL_DATA 1024 
SCALARS Pressure float 1 
LOOKUP_TABLE default 

    1.4563264415566346E-01 
    1.4637679212530616E-01 
    1.5093279724951317E-01 
    1.5279398397471447E-01 
    1.5802439586570233E-01 
    1.5521285834598592E-01 
    1.5887042385947703E-01 
    1.6204737949047673E-01 
    1.6520702273930996E-01 
    1.6189138309492196E-01 
    1.6432805248219126E-01 
    1.6768719345463701E-01 
    1.6959673385783414E-01 
    1.6623619723265956E-01 
    1.6766285221735916E-01 
    1.7100609216910689E-01 
    1.7196464589319865E-01 
    1.6864620258074783E-01 
    1.6921773914725366E-01 
    1.7250962863429267E-01 
    1.7267109316447776E-01 
    1.6940437434232017E-01 
    1.6923010585888826E-01 
    1.7247486358385702E-01 
    1.7194440298306476E-01 
    1.6871726149147162E-01 
    1.6788743238475973E-01 
    1.7110206596701960E-01 
    1.6996998799679966E-01 
    1.6676218966905831E-01 
    1.6536365452912227E-01 
    1.6857075390019302E-01 
    1.6692792977436158E-01 
    1.6371497080801645E-01 
    1.6184071434649691E-01 
    1.6506651029205407E-01 
    1.6301331484028217E-01 
    1.5976726326432850E-01 
    1.5752314686578603E-01 
    1.6079735469958631E-01 
    1.5845018613293746E-01 
    1.5513938666892840E-01 
    1.5264984043600865E-01 
    1.5600625849536595E-01 
    1.5350326014357174E-01 
    1.5009155855682982E-01 
    1.4750516170200428E-01 
    1.5098245488131531E-01 
    1.4848898176222983E-01 
    1.4493525052503212E-01 
    1.4243086759322829E-01 
    1.4607204730719400E-01 
    1.4378483720264118E-01 
    1.4004606798830149E-01 
    1.3784078746172976E-01 
    1.4168372416566455E-01 
    1.3982569772405753E-01 
    1.3588267642734764E-01 
    1.3425232065234574E-01 
    1.3826113067493570E-01 
    1.3701318618363842E-01 
    1.3306078235962063E-01 
    1.3251144165183501E-01 
    1.3598910485798518E-01 
    1.4576760663737803E-01 
    1.4458982212982491E-01 
    1.4786588068133913E-01 
    1.4941132774371768E-01 
    1.5301141844814367E-01 
    1.5105981910263855E-01 
    1.5399903226474246E-01 
    1.5626787438698592E-01 
    1.5906795694851486E-01 
    1.5657998315481131E-01 
    1.5875473738600926E-01 
    1.6138692311184394E-01 
    1.6323442296453189E-01 
    1.6050837849927799E-01 
    1.6184315545892930E-01 
    1.6463140029384657E-01 
    1.6560123347426722E-01 
    1.6276955693951797E-01 
    1.6330181019409643E-01 
    1.6616678613780217E-01 
    1.6634975239455710E-01 
    1.6345580491965020E-01 
    1.6324825366820234E-01 
    1.6617082958572896E-01 
    1.6565014765406816E-01 
    1.6269645627193660E-01 
    1.6181834911703685E-01 
    1.6480774406359738E-01 
    1.6366401428843294E-01 
    1.6063268329533018E-01 
    1.5915925758215874E-01 
    1.6224012156301368E-01 
    1.6055836881570293E-01 
    1.5741917261215604E-01 
    1.5543509247718246E-01 
    1.5864254169422939E-01 
    1.5651823281020680E-01 
    1.5323150985746259E-01 
    1.5083501607150604E-01 
    1.5421315719141188E-01 
    1.5175746888708733E-01 
    1.4827458091490645E-01 
    1.4558185059843923E-01 
    1.4918408955759163E-01 
    1.4652906266830062E-01 
    1.4279147705096795E-01 
    1.3994150048381493E-01 
    1.4383195354409420E-01 
    1.4113633058727423E-01 
    1.3707382326025963E-01 
    1.3423484408058201E-01 
    1.3849039753978881E-01 
    1.3594792824809274E-01 
    1.3147638077648460E-01 
    1.2885711952253667E-01 
    1.3356985170602551E-01 
    1.3142730905965228E-01 
    1.2644501028963925E-01 
    1.2432124411042983E-01 
    1.2960811723655216E-01 
    1.2823094781004180E-01 
    1.2258632238518784E-01 
    1.2136653578728936E-01 
    1.2747502386904125E-01 
    1.4313144256303920E-01 
    1.4149587018343973E-01 
    1.4450335402246720E-01 
    1.4623428109551137E-01 
    1.4918737014604999E-01 
    1.4730652386666712E-01 
    1.4985447906259644E-01 
    1.5189796928311752E-01 
    1.5429236588048600E-01 
    1.5209844529441102E-01 
    1.5400174049058293E-01 
    1.5632461112201704E-01 
    1.5797150331297469E-01 
    1.5554124084753068E-01 
    1.5670516331633783E-01 
    1.5922520249809030E-01 
    1.6008734564733557E-01 
    1.5749008911816448E-01 
    1.5789842598234663E-01 
    1.6056519564239541E-01 
    1.6066937376243842E-01 
    1.5793658966045268E-01 
    1.5761382758148271E-01 
    1.6041262958438793E-01 
    1.5980923794248844E-01 
    1.5694151962407843E-01 
    1.5593280406788360E-01 
    1.5887475894465555E-01 
    1.5762600314508854E-01 
    1.5460241511569095E-01 
    1.5296665460011652E-01 
    1.5608111115623474E-01 
    1.5425969699641220E-01 
    1.5104344778300688E-01 
    1.4885245190620569E-01 
    1.5218302767596895E-01 
    1.4987422497892561E-01 
    1.4641519854395318E-01 
    1.4375525899341371E-01 
    1.4735848349004907E-01 
    1.4466330434944918E-01 
    1.4089842760619195E-01 
    1.3787292235023804E-01 
    1.4181874876775349E-01 
    1.3885772041128452E-01 
    1.3470960590000841E-01 
    1.3144223477381917E-01 
    1.3581629280319560E-01 
    1.3273410861453261E-01 
    1.2810774853433010E-01 
    1.2474661458915665E-01 
    1.2965489408243930E-01 
    1.2662715455509502E-01 
    1.2140324198815795E-01 
    1.1812645666189735E-01 
    1.2370514014412012E-01 
    1.2095016177322854E-01 
    1.1496995854649697E-01 
    1.1199248829176477E-01 
    1.1843218698960455E-01 
    1.1623103497311539E-01 
    1.0925699344063219E-01 
    1.0682726908780231E-01 
    1.1443467145826083E-01 
    1.3971012828764073E-01 
    1.3776631635751327E-01 
    1.4067099317517093E-01 
    1.4265734226363536E-01 
    1.4536059871912108E-01 
    1.4330281755209243E-01 
    1.4564291052319633E-01 
    1.4779017136954781E-01 
    1.4991397742611015E-01 
    1.4766955068196139E-01 
    1.4936247965089910E-01 
    1.5170457625894895E-01 
    1.5314202345572545E-01 
    1.5070543193472818E-01 
    1.5168704272934933E-01 
    1.5421399925565329E-01 
    1.5491471670100074E-01 
    1.5230073846048117E-01 
    1.5254416322488801E-01 
    1.5524355277328500E-01 
    1.5520383945749872E-01 
    1.5241849715678862E-01 
    1.5192784660620431E-01 
    1.5480195016746978E-01 
    1.5404667654819132E-01 
    1.5107877238992268E-01 
    1.4987996244139479E-01 
    1.5294884168998518E-01 
    1.5152108914055529E-01 
    1.4834202953489836E-01 
    1.4647740749647539E-01 
    1.4977779609228073E-01 
    1.4773507153060234E-01 
    1.4430032044794136E-01 
    1.4182680375807713E-01 
    1.4541081130766612E-01 
    1.4282479084059913E-01 
    1.3907475992154486E-01 
    1.3606403650357468E-01 
    1.3999878255401152E-01 
    1.3695668982389445E-01 
    1.3281651627536203E-01 
    1.2935621172600703E-01 
    1.3372469258535155E-01 
    1.3033140232541054E-01 
    1.2570935731433500E-01 
    1.2190449296632357E-01 
    1.2680802593223944E-01 
    1.2318853814279818E-01 
    1.1797253077460841E-01 
    1.1394679196852700E-01 
    1.1950985899178089E-01 
    1.1581202067373687E-01 
    1.0986298964343072E-01 
    1.0575910864924884E-01 
    1.1213827720402118E-01 
    1.0853504148204564E-01 
    1.0167508934029681E-01 
    9.7652150346700661E-02 
    1.0505140063132644E-01 
    1.0173774159160920E-01 
    9.3731497790955701E-02 
    8.9952128359859232E-02 
    9.8642767270369219E-02 
    1.3563914838016111E-01 
    1.3329408538664486E-01 
    1.3613991152467944E-01 
    1.3851128118597433E-01 
    1.4108875875293206E-01 
    1.3867394255275667E-01 
    1.4088613289870699E-01 
    1.4335842224121023E-01 
    1.4530482219815150E-01 
    1.4276480957071466E-01 
    1.4429815749797986E-01 
    1.4691275572625873E-01 
    1.4816912665951126E-01 
    1.4547549096459897E-01 
    1.4628809874941717E-01 
    1.4906394204738288E-01 
    1.4959061769661211E-01 
    1.4672966703113804E-01 
    1.4679638905597495E-01 
    1.4974586230758230E-01 
    1.4952936964274022E-01 
    1.4648688954019715E-01 
    1.4580206792419453E-01 
    1.4894346943354936E-01 
    1.4799281770259362E-01 
    1.4474492921374923E-01 
    1.4332043986830229E-01 
    1.4668415924206854E-01 
    1.4502616730399673E-01 
    1.4153542396677826E-01 
    1.3939850133427886E-01 
    1.4302935203330466E-01 
    1.4070602410720739E-01 
    1.3692006222435893E-01 
    1.3411227012226998E-01 
    1.3807029935515697E-01 
    1.3513813128331389E-01 
    1.3098908331940143E-01 
    1.2756628575036225E-01 
    1.3192735998786356E-01 
    1.2845776719720484E-01 
    1.2386151735777279E-01 
    1.1989429356056730E-01 
    1.2475112783749044E-01 
    1.2083124847777660E-01 
    1.1568600217664023E-01 
    1.1125986455800692E-01 
    1.1672398221721884E-01 
    1.1245720780942839E-01 
    1.0664084611043163E-01 
    1.0185550041034916E-01 
    1.0806075748606148E-01 
    1.0356627181165927E-01 
    9.6931731752957037E-02 
    9.1898464364032498E-02 
    9.9006948881634152E-02 
    9.4417136556901232E-02 
    8.6785213258163227E-02 
    8.1621559250262196E-02 
    8.9831688965142445E-02 
    8.5284979427990446E-02 
    7.6436529464118580E-02 
    7.1257860329079117E-02 
    8.0809463111891397E-02 
    1.3069141787354466E-01 
    1.2778845471359229E-01 
    1.3059340941436584E-01 
    1.3351521507273881E-01 
    1.3601324301877507E-01 
    1.3306088915466674E-01 
    1.3518357571119813E-01 
    1.3817719556634322E-01 
    1.3999767539754443E-01 
    1.3695344293857556E-01 
    1.3836228076634297E-01 
    1.4146507150258283E-01 
    1.4257040104052193E-01 
    1.3940224240391444E-01 
    1.4006630999405009E-01 
    1.4330595539714630E-01 
    1.4366570589993932E-01 
    1.4034863227354738E-01 
    1.4024473609137039E-01 
    1.4364550127533285E-01 
    1.4324312039922385E-01 
    1.3975164037518653E-01 
    1.3886790835638385E-01 
    1.4245824417013650E-01 
    1.4129239575567779E-01 
    1.3759366893598549E-01 
    1.3593062828061112E-01 
    1.3974888054113652E-01 
    1.3783274179349939E-01 
    1.3388208303023796E-01 
    1.3145293926661894E-01 
    1.3555073730597808E-01 
    1.3291133584988060E-01 
    1.2864973707989658E-01 
    1.2548067848488889E-01 
    1.2992472893317111E-01 
    1.2660285176428268E-01 
    1.2195565542092042E-01 
    1.1808627348801158E-01 
    1.2295940626573343E-01 
    1.1900987766782457E-01 
    1.1388586511409197E-01 
    1.0936948264304081E-01 
    1.1477153424669044E-01 
    1.1026339715942887E-01 
    1.0455385745930885E-01 
    9.9457306206301221E-02 
    1.0550616446428300E-01 
    1.0052207116414318E-01 
    9.4099560381418410E-02 
    8.8501493095446943E-02 
    9.5334667156641628E-02 
    8.9968500488663630E-02 
    8.2684721203763925E-02 
    7.6671082931962412E-02 
    8.4448709699282143E-02 
    7.8800563020533704E-02 
    7.0482050958256715E-02 
    6.4138264871111891E-02 
    7.3049034646496980E-02 
    6.7218553325702077E-02 
    5.7659547313447447E-02 
    5.1065839291122642E-02 
    6.1333011482866295E-02 
    1.2454076315939623E-01 
    1.2090290782174291E-01 
    1.2367735203998231E-01 
    1.2732940994211606E-01 
    1.2977061719064381E-01 
    1.2609583194763091E-01 
    1.2815192082092638E-01 
    1.3185763174282697E-01 
    1.3358325190455525E-01 
    1.2983891579231602E-01 
    1.3115001391398104E-01 
    1.3494013905233679E-01 
    1.3592116340585700E-01 
    1.3207851407060947E-01 
    1.3261801099233311E-01 
    1.3651972119212763E-01 
    1.3672998998684938E-01 
    1.3276256536450259E-01 
    1.3250685110473390E-01 
    1.3654711752728543E-01 
    1.3596735712434044E-01 
    1.3184628999950265E-01 
    1.3077718393706697E-01 
    1.3498816857159657E-01 
    1.3360830069046195E-01 
    1.2929684920193132E-01 
    1.2740375029964576E-01 
    1.3182786522997822E-01 
    1.2964840565581132E-01 
    1.2509762613459860E-01 
    1.2237960061438401E-01 
    1.2707296047341471E-01 
    1.2410611945129696E-01 
    1.1925227249556043E-01 
    1.1571978381148532E-01 
    1.2075407157427814E-01 
    1.1702464437008808E-01 
    1.1178787033800724E-01 
    1.0746389930390252E-01 
    1.1292733406110383E-01 
    1.0847332386730750E-01 
    1.0275689775823177E-01 
    9.7677569430313305E-02 
    1.0367548338105152E-01 
    9.8548335421801928E-02 
    9.2238289061725501E-02 
    8.6453051694942204E-02 
    9.3107968612210379E-02 
    8.7371864549922351E-02 
    8.0337339946171218E-02 
    7.3907852029896803E-02 
    8.1358598495934770E-02 
    7.5087364687546454E-02 
    6.7182001014615814E-02 
    6.0177047001442927E-02 
    6.8577283515412354E-02 
    6.1846506104098670E-02 
    5.2908686678784032E-02 
    4.5389062236063503E-02 
    5.4911334152363329E-02 
    4.7786057565332794E-02 
    3.7624989729229161E-02 
    2.9619785018218988E-02 
    4.0484926499132670E-02 
    1.1682891787449984E-01 
    1.1227260964829702E-01 
    1.1502367402328378E-01 
    1.1959093655653955E-01 
    1.2198974165884592E-01 
    1.1740546800196100E-01 
    1.1941191111047898E-01 
    1.2401910596559756E-01 
    1.2567264448402737E-01 
    1.2103685797494508E-01 
    1.2227410967414210E-01 
    1.2694389636424999E-01 
    1.2782641420723098E-01 
    1.2311740290695772E-01 
    1.2356037651736740E-01 
    1.2831384685519773E-01 
    1.2840001896563316E-01 
    1.2359654306632568E-01 
    1.2321930751026317E-01 
    1.2807902311500904E-01 
    1.2734534119132274E-01 
    1.2242206683632548E-01 
    1.2119839976052670E-01 
    1.2619400250964052E-01 
    1.2462077247217579E-01 
    1.1954232744522876E-01 
    1.1744860619364925E-01 
    1.2262235430546746E-01 
    1.2019658167364840E-01 
    1.1491300708707471E-01 
    1.1193254546504403E-01 
    1.1734258274361536E-01 
    1.1406090477999130E-01 
    1.0850564073735287E-01 
    1.0463220801380846E-01 
    1.1035359920863218E-01 
    1.0622427655639563E-01 
    1.0031370101990433E-01 
    9.5553135637435435E-02 
    1.0167814566789728E-01 
    9.6722050544772356E-02 
    9.0355123069830623E-02 
    8.4725932171514057E-02 
    9.1364511193186421E-02 
    8.5615763458663161E-02 
    7.8673585339869678E-02 
    7.2207976542169081E-02 
    7.9487778836434514E-02 
    7.2994228940140501E-02 
    6.5340988348980764E-02 
    5.8086577028614486E-02 
    6.6150335058274085E-02 
    5.8972490728358841E-02 
    5.0460772614074549E-02 
    4.2481412820175042E-02 
    5.1477413327138517E-02 
    4.3680283307480541E-02 
    3.4166878076320940E-02 
    2.5531266974267570E-02 
    3.5590866362109168E-02 
    2.7206738662738639E-02 
    1.6568635819853655E-02 
    7.2126669535126928E-03 
    1.8507580864778307E-02 
    1.0718784207564386E-01 
    1.0152875771952530E-01 
    1.0426086336125191E-01 
    1.0992908028539584E-01 
    1.1229614643627089E-01 
    1.0661503825197312E-01 
    1.0858552600664621E-01 
    1.1428310625640831E-01 
    1.1588405439412634E-01 
    1.1016672045864423E-01 
    1.1135311200579358E-01 
    1.1709307522563685E-01 
    1.1790413133380874E-01 
    1.1213906832449871E-01 
    1.1251845097373352E-01 
    1.1831088625164372E-01 
    1.1830652655025571E-01 
    1.1248420118950882E-01 
    1.1202807953866750E-01 
    1.1788367355870931E-01 
    1.1703445207682393E-01 
    1.1114068977049481E-01 
    1.0981180913025879E-01 
    1.1575073064356711E-01 
    1.1402449378237056E-01 
    1.0803094693011522E-01 
    1.0578799496953716E-01 
    1.1184827180088097E-01 
    1.0921554612100544E-01 
    1.0307382591603184E-01 
    9.9880730126660572E-02 
    1.0612106515164244E-01 
    1.0256103853978484E-01 
    9.6202640320048119E-02 
    9.2035158840359801E-02 
    9.8533215271682198E-02 
    9.4036882760663965E-02 
    8.7375456707862759E-02 
    8.2222139664292676E-02 
    8.9072840829948943E-02 
    8.3643403676096253E-02 
    7.6575171070446230E-02 
    7.0435913920795665E-02 
    7.7752467756921517E-02 
    7.1405660665852577E-02 
    6.3807315139506868E-02 
    5.6694218878026711E-02 
    6.4610565235841522E-02 
    5.7377007918849351E-02 
    4.9103784489248653E-02 
    4.1046010452904444E-02 
    4.9717427203576636E-02 
    4.1647433363299027E-02 
    3.2534537748365025E-02 
    2.3588599956400912E-02 
    3.3186861446124177E-02 
    2.4361687416132444E-02 
    1.4239112342319969E-02 
    4.5496558873458328E-03 
    1.5205719815946293E-02 
    5.7493644315855094E-03 
   -5.2983810803917978E-03 
   -1.4644770493098733E-02 
   -4.0967930676835268E-03 
    9.5250049532560582E-02 
    8.8307286315147102E-02 
    9.1020668896110060E-02 
    9.7973134282697050E-02 
    1.0031568171905431E-01 
    9.3352118142208451E-02 
    9.5296248516199666E-02 
    1.0227214351573509E-01 
    1.0383729554038149E-01 
    9.6848233573795142E-02 
    9.8004163774734698E-02 
    1.0500626303027613E-01 
    1.0577419293221779E-01 
    9.8760649784514765E-02 
    9.9113516425958295E-02 
    1.0613553853386487E-01 
    1.0608323253579482E-01 
    9.9056199847303614E-02 
    9.8578652862173835E-02 
    1.0560812893709350E-01 
    1.0469896026113586E-01 
    9.7667209246528067E-02 
    9.6305399049828794E-02 
    1.0334283478753649E-01 
    1.0152611743640715E-01 
    9.4475396731943176E-02 
    9.2159654673078753E-02 
    9.9235446575577521E-02 
    9.6458638703360133E-02 
    8.9342300513147774E-02 
    8.6010008656094844E-02 
    9.3185300795135706E-02 
    8.9407073316552871E-02 
    8.2152231593040831E-02 
    7.7760860015422206E-02 
    8.5117538111232030E-02 
    8.0311920860292318E-02 
    7.2829562025849920E-02 
    6.7353099655827753E-02 
    7.4986755147428696E-02 
    6.9139653705553208E-02 
    6.1326848766528989E-02 
    5.4746650641522204E-02 
    6.2769280048150647E-02 
    5.5875545725869884E-02 
    4.7609015128161111E-02 
    3.9911541666580369E-02 
    4.8459988172538201E-02 
    4.0526264984845829E-02 
    3.1653513181363141E-02 
    2.2836532317658781E-02 
    3.2080628224251090E-02 
    2.3132089252049782E-02 
    1.3464221336545616E-02 
    3.5395079626599347E-03 
    1.3692122160838304E-02 
    3.7736777307170802E-03 
   -6.9398099671468547E-03 
   -1.8034309420867124E-02 
   -6.6172111928218189E-03 
   -1.7490797124020550E-02 
   -2.9752763122709511E-02 
   -4.1777747078204544E-02 
   -2.8737092610074393E-02 
    8.0657325008925376E-02 
    7.2258840747474976E-02 
    7.4945960677282611E-02 
    8.3359235165030798E-02 
    8.5679239469658511E-02 
    7.7253310428053709E-02 
    7.9174348987931797E-02 
    8.7611827628526234E-02 
    8.9152270703280564E-02 
    8.0703145973003779E-02 
    8.1838733437598468E-02 
    9.0298006554813126E-02 
    9.1048341347529010E-02 
    8.2585420861951711E-02 
    8.2947757402463643E-02 
    9.1401979565224237E-02 
    9.1353875425839920E-02 
    8.2924153306480827E-02 
    8.2503085179010421E-02 
    9.0893162423384397E-02 
    9.0002923871210630E-02 
    8.1662919363331005E-02 
    8.0374582889400401E-02 
    8.8661629771929970E-02 
    8.6845591469042166E-02 
    7.8605803212776493E-02 
    7.6325533588352645E-02 
    8.4531636382792014E-02 
    8.1699298557421682E-02 
    7.3507407970149638E-02 
    7.0131568407717476E-02 
    7.8332074961191239E-02 
    7.4417581649320691E-02 
    6.6184645924680069E-02 
    6.1657903492085282E-02 
    6.9946715633650611E-02 
    6.4912334267868563E-02 
    5.6544696776827948E-02 
    5.0838373538763727E-02 
    5.9308008183170925E-02 
    5.3127168865837793E-02 
    4.4530944542641004E-02 
    3.7612568864116680E-02 
    4.6362799270602238E-02 
    3.9007706922402449E-02 
    3.0072303760215136E-02 
    2.1898144019237495E-02 
    3.1054891987511206E-02 
    2.2498105263882077E-02 
    1.3076225068497276E-02 
    3.5937280653672251E-03 
    1.3333329630656539E-02 
    3.5595068862064017E-03 
   -6.5517350590119780E-03 
   -1.7389663043837104E-02 
   -6.8291882750071576E-03 
   -1.7845403522352834E-02 
   -2.8892335222814085E-02 
   -4.0998078812572947E-02 
   -2.9457498761049090E-02 
   -4.1592803819387993E-02 
   -5.3680313399449731E-02 
   -6.6934876571152560E-02 
   -5.4262912266623151E-02 
    6.3073055553994409E-02 
    5.3065022809366175E-02 
    5.5699990375146828E-02 
    6.5739583663274259E-02 
    6.8032689666115906E-02 
    5.7978608357116553E-02 
    5.9881127164166090E-02 