# vtk DataFile Version 2.0
Pressure Field Data 
ASCII 
DATASET UNSTRUCTURED_GRID 

POINTS 25 float 

    0.0000000000000000E+00     0.0000000000000000E+00     0.0000000000000000E+00 
    1.0000000000000000E+00     0.0000000000000000E+00     0.0000000000000000E+00 
    1.0000000000000000E+00     1.0000000000000000E+00     0.0000000000000000E+00 
    0.0000000000000000E+00     1.0000000000000000E+00     0.0000000000000000E+00 
    2.4999999999941841E-01     0.0000000000000000E+00     0.0000000000000000E+00 
    4.9999999999869210E-01     0.0000000000000000E+00     0.0000000000000000E+00 
    7.4999999999934608E-01     0.0000000000000000E+00     0.0000000000000000E+00 
    1.0000000000000000E+00     2.4999999999941841E-01     0.0000000000000000E+00 
    1.0000000000000000E+00     4.9999999999869210E-01     0.0000000000000000E+00 
    1.0000000000000000E+00     7.4999999999934608E-01     0.0000000000000000E+00 
    7.5000000000076006E-01     1.0000000000000000E+00     0.0000000000000000E+00 
    5.0000000000205946E-01     1.0000000000000000E+00     0.0000000000000000E+00 
    2.5000000000102968E-01     1.0000000000000000E+00     0.0000000000000000E+00 
    0.0000000000000000E+00     7.5000000000076006E-01     0.0000000000000000E+00 
    0.0000000000000000E+00     5.0000000000205946E-01     0.0000000000000000E+00 
    0.0000000000000000E+00     2.5000000000102968E-01     0.0000000000000000E+00 
    5.0000000000037581E-01     5.0000000000037581E-01     0.0000000000000000E+00 
    4.9999999999953387E-01     2.5000000000018791E-01     0.0000000000000000E+00 
    2.5000000000018791E-01     5.0000000000121769E-01     0.0000000000000000E+00 
    2.4999999999977909E-01     2.5000000000060890E-01     0.0000000000000000E+00 
    5.0000000000121769E-01     7.5000000000018785E-01     0.0000000000000000E+00 
    2.5000000000060879E-01     7.5000000000056355E-01     0.0000000000000000E+00 
    7.5000000000018785E-01     4.9999999999953387E-01     0.0000000000000000E+00 
    7.4999999999976719E-01     2.4999999999977909E-01     0.0000000000000000E+00 
    7.5000000000056355E-01     7.4999999999976708E-01     0.0000000000000000E+00 

CELLS 16 80 

4 0 4 19 15 
4 4 5 17 19 
4 19 17 16 18 
4 15 19 18 14 
4 14 18 21 13 
4 18 16 20 21 
4 21 20 11 12 
4 13 21 12 3 
4 5 6 23 17 
4 6 1 7 23 
4 23 7 8 22 
4 17 23 22 16 
4 16 22 24 20 
4 22 8 9 24 
4 24 9 2 10 
4 20 24 10 11 

CELL_TYPES 16 

7 
7 
7 
7 
7 
7 
7 
7 
7 
7 
7 
7 
7 
7 
7 
7 

CELL_DATA 16 
SCALARS Pressure float 1 
LOOKUP_TABLE default 

    6.3749999999995905E+00 
    6.3749999999998010E+00 
    6.1249999999994023E+00 
    6.1249999999987708E+00 
    4.7499999999884981E+00 
    4.7499999999941380E+00 
    2.2499999999981206E+00 
    2.2499999999966924E+00 
    6.3750000000000080E+00 
    6.3750000000002007E+00 
    6.1250000000006439E+00 
    6.1250000000000311E+00 
    4.7500000000003384E+00 
    4.7500000000066525E+00 
    2.2500000000022169E+00 
    2.2500000000001137E+00 

