# vtk DataFile Version 2.0
Pressure Field Data 
ASCII 
DATASET UNSTRUCTURED_GRID 

POINTS 1089 float 

    0.0000000000000000E+00     0.0000000000000000E+00     0.0000000000000000E+00 
    1.0000000000000000E+00     0.0000000000000000E+00     0.0000000000000000E+00 
    1.0000000000000000E+00     1.0000000000000000E+00     0.0000000000000000E+00 
    0.0000000000000000E+00     1.0000000000000000E+00     0.0000000000000000E+00 
    3.1249999999941821E-02     0.0000000000000000E+00     0.0000000000000000E+00 
    6.2499999999872928E-02     0.0000000000000000E+00     0.0000000000000000E+00 
    9.3749999999823030E-02     0.0000000000000000E+00     0.0000000000000000E+00 
    1.2499999999977310E-01     0.0000000000000000E+00     0.0000000000000000E+00 
    1.5624999999968331E-01     0.0000000000000000E+00     0.0000000000000000E+00 
    1.8749999999959341E-01     0.0000000000000000E+00     0.0000000000000000E+00 
    2.1874999999950220E-01     0.0000000000000000E+00     0.0000000000000000E+00 
    2.4999999999941089E-01     0.0000000000000000E+00     0.0000000000000000E+00 
    2.8124999999931971E-01     0.0000000000000000E+00     0.0000000000000000E+00 
    3.1249999999922851E-01     0.0000000000000000E+00     0.0000000000000000E+00 
    3.4374999999913730E-01     0.0000000000000000E+00     0.0000000000000000E+00 
    3.7499999999904610E-01     0.0000000000000000E+00     0.0000000000000000E+00 
    4.0624999999895478E-01     0.0000000000000000E+00     0.0000000000000000E+00 
    4.3749999999886358E-01     0.0000000000000000E+00     0.0000000000000000E+00 
    4.6874999999877792E-01     0.0000000000000000E+00     0.0000000000000000E+00 
    4.9999999999869210E-01     0.0000000000000000E+00     0.0000000000000000E+00 
    5.3124999999876910E-01     0.0000000000000000E+00     0.0000000000000000E+00 
    5.6249999999884603E-01     0.0000000000000000E+00     0.0000000000000000E+00 
    5.9374999999892841E-01     0.0000000000000000E+00     0.0000000000000000E+00 
    6.2499999999901090E-01     0.0000000000000000E+00     0.0000000000000000E+00 
    6.5624999999909328E-01     0.0000000000000000E+00     0.0000000000000000E+00 
    6.8749999999917577E-01     0.0000000000000000E+00     0.0000000000000000E+00 
    7.1874999999925815E-01     0.0000000000000000E+00     0.0000000000000000E+00 
    7.4999999999934064E-01     0.0000000000000000E+00     0.0000000000000000E+00 
    7.8124999999942302E-01     0.0000000000000000E+00     0.0000000000000000E+00 
    8.1249999999950551E-01     0.0000000000000000E+00     0.0000000000000000E+00 
    8.4374999999958789E-01     0.0000000000000000E+00     0.0000000000000000E+00 
    8.7499999999967026E-01     0.0000000000000000E+00     0.0000000000000000E+00 
    9.0624999999975264E-01     0.0000000000000000E+00     0.0000000000000000E+00 
    9.3749999999983513E-01     0.0000000000000000E+00     0.0000000000000000E+00 
    9.6874999999991751E-01     0.0000000000000000E+00     0.0000000000000000E+00 
    1.0000000000000000E+00     3.1249999999941821E-02     0.0000000000000000E+00 
    1.0000000000000000E+00     6.2499999999872928E-02     0.0000000000000000E+00 
    1.0000000000000000E+00     9.3749999999823030E-02     0.0000000000000000E+00 
    1.0000000000000000E+00     1.2499999999977310E-01     0.0000000000000000E+00 
    1.0000000000000000E+00     1.5624999999968331E-01     0.0000000000000000E+00 
    1.0000000000000000E+00     1.8749999999959341E-01     0.0000000000000000E+00 
    1.0000000000000000E+00     2.1874999999950220E-01     0.0000000000000000E+00 
    1.0000000000000000E+00     2.4999999999941089E-01     0.0000000000000000E+00 
    1.0000000000000000E+00     2.8124999999931971E-01     0.0000000000000000E+00 
    1.0000000000000000E+00     3.1249999999922851E-01     0.0000000000000000E+00 
    1.0000000000000000E+00     3.4374999999913730E-01     0.0000000000000000E+00 
    1.0000000000000000E+00     3.7499999999904610E-01     0.0000000000000000E+00 
    1.0000000000000000E+00     4.0624999999895478E-01     0.0000000000000000E+00 
    1.0000000000000000E+00     4.3749999999886358E-01     0.0000000000000000E+00 
    1.0000000000000000E+00     4.6874999999877792E-01     0.0000000000000000E+00 
    1.0000000000000000E+00     4.9999999999869210E-01     0.0000000000000000E+00 
    1.0000000000000000E+00     5.3124999999876910E-01     0.0000000000000000E+00 
    1.0000000000000000E+00     5.6249999999884603E-01     0.0000000000000000E+00 
    1.0000000000000000E+00     5.9374999999892841E-01     0.0000000000000000E+00 
    1.0000000000000000E+00     6.2499999999901090E-01     0.0000000000000000E+00 
    1.0000000000000000E+00     6.5624999999909328E-01     0.0000000000000000E+00 
    1.0000000000000000E+00     6.8749999999917577E-01     0.0000000000000000E+00 
    1.0000000000000000E+00     7.1874999999925815E-01     0.0000000000000000E+00 
    1.0000000000000000E+00     7.4999999999934064E-01     0.0000000000000000E+00 
    1.0000000000000000E+00     7.8124999999942302E-01     0.0000000000000000E+00 
    1.0000000000000000E+00     8.1249999999950551E-01     0.0000000000000000E+00 
    1.0000000000000000E+00     8.4374999999958789E-01     0.0000000000000000E+00 
    1.0000000000000000E+00     8.7499999999967026E-01     0.0000000000000000E+00 
    1.0000000000000000E+00     9.0624999999975264E-01     0.0000000000000000E+00 
    1.0000000000000000E+00     9.3749999999983513E-01     0.0000000000000000E+00 
    1.0000000000000000E+00     9.6874999999991751E-01     0.0000000000000000E+00 
    9.6874999999986700E-01     1.0000000000000000E+00     0.0000000000000000E+00 
    9.3749999999973976E-01     1.0000000000000000E+00     0.0000000000000000E+00 
    9.0624999999967670E-01     1.0000000000000000E+00     0.0000000000000000E+00 
    8.7499999999950118E-01     1.0000000000000000E+00     0.0000000000000000E+00 
    8.4374999999971556E-01     1.0000000000000000E+00     0.0000000000000000E+00 
    8.1249999999991318E-01     1.0000000000000000E+00     0.0000000000000000E+00 
    7.8125000000010270E-01     1.0000000000000000E+00     0.0000000000000000E+00 
    7.5000000000034706E-01     1.0000000000000000E+00     0.0000000000000000E+00 
    7.1875000000056688E-01     1.0000000000000000E+00     0.0000000000000000E+00 
    6.8750000000078049E-01     1.0000000000000000E+00     0.0000000000000000E+00 
    6.5625000000097422E-01     1.0000000000000000E+00     0.0000000000000000E+00 
    6.2500000000121403E-01     1.0000000000000000E+00     0.0000000000000000E+00 
    5.9375000000151579E-01     1.0000000000000000E+00     0.0000000000000000E+00 
    5.6250000000164757E-01     1.0000000000000000E+00     0.0000000000000000E+00 
    5.3125000000182365E-01     1.0000000000000000E+00     0.0000000000000000E+00 
    5.0000000000205946E-01     1.0000000000000000E+00     0.0000000000000000E+00 
    4.6875000000194023E-01     1.0000000000000000E+00     0.0000000000000000E+00 
    4.3750000000182099E-01     1.0000000000000000E+00     0.0000000000000000E+00 
    4.0625000000169093E-01     1.0000000000000000E+00     0.0000000000000000E+00 
    3.7500000000156092E-01     1.0000000000000000E+00     0.0000000000000000E+00 
    3.4375000000143069E-01     1.0000000000000000E+00     0.0000000000000000E+00 
    3.1250000000130068E-01     1.0000000000000000E+00     0.0000000000000000E+00 
    2.8125000000117062E-01     1.0000000000000000E+00     0.0000000000000000E+00 
    2.5000000000104050E-01     1.0000000000000000E+00     0.0000000000000000E+00 
    2.1875000000091041E-01     1.0000000000000000E+00     0.0000000000000000E+00 
    1.8750000000078040E-01     1.0000000000000000E+00     0.0000000000000000E+00 
    1.5625000000065031E-01     1.0000000000000000E+00     0.0000000000000000E+00 
    1.2500000000052031E-01     1.0000000000000000E+00     0.0000000000000000E+00 
    9.3750000000390132E-02     1.0000000000000000E+00     0.0000000000000000E+00 
    6.2500000000260125E-02     1.0000000000000000E+00     0.0000000000000000E+00 
    3.1250000000130007E-02     1.0000000000000000E+00     0.0000000000000000E+00 
    0.0000000000000000E+00     9.6874999999986700E-01     0.0000000000000000E+00 
    0.0000000000000000E+00     9.3749999999973976E-01     0.0000000000000000E+00 
    0.0000000000000000E+00     9.0624999999967670E-01     0.0000000000000000E+00 
    0.0000000000000000E+00     8.7499999999950118E-01     0.0000000000000000E+00 
    0.0000000000000000E+00     8.4374999999971556E-01     0.0000000000000000E+00 
    0.0000000000000000E+00     8.1249999999991318E-01     0.0000000000000000E+00 
    0.0000000000000000E+00     7.8125000000010270E-01     0.0000000000000000E+00 
    0.0000000000000000E+00     7.5000000000034706E-01     0.0000000000000000E+00 
    0.0000000000000000E+00     7.1875000000056688E-01     0.0000000000000000E+00 
    0.0000000000000000E+00     6.8750000000078049E-01     0.0000000000000000E+00 
    0.0000000000000000E+00     6.5625000000097422E-01     0.0000000000000000E+00 
    0.0000000000000000E+00     6.2500000000121403E-01     0.0000000000000000E+00 
    0.0000000000000000E+00     5.9375000000151579E-01     0.0000000000000000E+00 
    0.0000000000000000E+00     5.6250000000164757E-01     0.0000000000000000E+00 
    0.0000000000000000E+00     5.3125000000182365E-01     0.0000000000000000E+00 
    0.0000000000000000E+00     5.0000000000205946E-01     0.0000000000000000E+00 
    0.0000000000000000E+00     4.6875000000194023E-01     0.0000000000000000E+00 
    0.0000000000000000E+00     4.3750000000182099E-01     0.0000000000000000E+00 
    0.0000000000000000E+00     4.0625000000169093E-01     0.0000000000000000E+00 
    0.0000000000000000E+00     3.7500000000156092E-01     0.0000000000000000E+00 
    0.0000000000000000E+00     3.4375000000143069E-01     0.0000000000000000E+00 
    0.0000000000000000E+00     3.1250000000130068E-01     0.0000000000000000E+00 
    0.0000000000000000E+00     2.8125000000117062E-01     0.0000000000000000E+00 
[...]
CELL_DATA 1024 
SCALARS Pressure float 1 
LOOKUP_TABLE default 

    6.3741513580710674E-02 
    6.5107189633265783E-02 
    6.9882634314132691E-02 
    7.1505803375809390E-02 
    7.7134520818136945E-02 
    7.4406577248981018E-02 
    7.8282628432179147E-02 
    8.1448257871119367E-02 
    8.4833561245012637E-02 
    8.1490845204029758E-02 
    8.4086925475597846E-02 
    8.7495635042800529E-02 
    8.9555348925701328E-02 
    8.6131127859518777E-02 
    8.7674383536743630E-02 
    9.1090587297974826E-02 
    9.2155679001172011E-02 
    8.8757987737034430E-02 
    8.9415886919561829E-02 
    9.2791360549680471E-02 
    9.3030292601768830E-02 
    8.9676958609924265E-02 
    8.9566811101877114E-02 
    9.2900328264017534E-02 
    9.2426571590181444E-02 
    8.9109131867447566E-02 
    8.8326698388291949E-02 
    9.1632750432295046E-02 
    9.0542184017695301E-02 
    8.7242152970473219E-02 
    8.5878616045990938E-02 
    8.9178502943845439E-02 
    8.7566214228964601E-02 
    8.4260189228043236E-02 
    8.2412382443027524E-02 
    8.5731167941916805E-02 
    8.3700961059176890E-02 
    8.0362487728573087E-02 
    7.8139914417830039E-02 
    8.1505301675376798E-02 
    7.9176348856881851E-02 
    7.5776495565688606E-02 
    7.3306773361012767E-02 
    7.6749038060653488E-02 
    7.4261397294572762E-02 
    7.0768272306777208E-02 
    6.8201774330302806E-02 
    7.1754852447743669E-02 
    6.9274506079552323E-02 
    6.5651622245000013E-02 
    6.3166103140715357E-02 
    6.6869339734625832E-02 
    6.4592204122814453E-02 
    6.0798019482873125E-02 
    5.8605707083005533E-02 
    6.2499242779787259E-02 
    6.0647818502595117E-02 
    5.6655243984538431E-02 
    5.5026310270676879E-02 
    5.9090408806064837E-02 
    5.7856839276476127E-02 
    5.3830523687298681E-02 
    5.3274003518640950E-02 
    5.6875695750117645E-02 
    6.4857150289278076E-02 
    6.3913886452533333E-02 
    6.7222071729572036E-02 
    6.8586894261195297E-02 
    7.2326214856293355E-02 
    7.0493773446227925E-02 
    7.3531905649377408E-02 
    7.5732822676975370E-02 
    7.8676393937442274E-02 
    7.6217592727866407E-02 
    7.8494650128132532E-02 
    8.1126127083532729E-02 
    8.3090356086831615E-02 
    8.0344167039127889E-02 
    8.1766702921495266E-02 
    8.4590502507600404E-02 
    8.5651013281100502E-02 
    8.2772238084879449E-02 
    8.3375073447385983E-02 
    8.6295943191936397E-02 
    8.6548133867967239E-02 
    8.3591450524681393E-02 
    8.3438567253635756E-02 
    8.6429343404267264E-02 
    8.5960682282790662E-02 
    8.2934283120607563E-02 
    8.2097155208379194E-02 
    8.5163114117059915E-02 
    8.4057938166897661E-02 
    8.0946628058617229E-02 
    7.9503290912960087E-02 
    8.2667230863962549E-02 
    8.1014244794572990E-02 
    7.7789159864852339E-02 
    7.5827962811700816E-02 
    7.9123769389254056E-02 
    7.7022457552333959E-02 
    7.3645413593089681E-02 
    7.1269464423930340E-02 
    7.4739120695195504E-02 
    7.2304993210118115E-02 
    6.8730526218572563E-02 
    6.6061647431786788E-02 
    6.9753968088912807E-02 
    6.7122810572370128E-02 
    6.3298646991367391E-02 
    6.0480211278241776E-02 
    6.4451370560119237E-02 
    6.1782844433732130E-02 
    5.7647998438091298E-02 
    5.4846860211611337E-02 
    5.9164196416031802E-02 
    5.6646964730126641E-02 
    5.2125409295128725E-02 
    4.9537340599719037E-02 
    5.4288906087096613E-02 
    5.2157410746199305E-02 
    4.7144146514217701E-02 
    4.5020054346732299E-02 
    5.0336657246422715E-02 
    4.8942552851449828E-02 
    4.3259669909626292E-02 
    4.1985859874894990E-02 
    4.8152050156322186E-02 
    6.2622745221691242E-02 
    6.1114899036675975E-02 
    6.4114804430152522E-02 
    6.5732220192752822E-02 
    6.8726758757843148E-02 
    6.6936698146495999E-02 
    6.9522365416913631E-02 
    7.1500314456840033E-02 
    7.3968400706218310E-02 
    7.1815961561689484E-02 
    7.3775126518514533E-02 
    7.6077725784635050E-02 
    7.7800532160273203E-02 
    7.5372606054211380E-02 
    7.6593777778514574E-02 
    7.9126327611348024E-02 
    8.0055293499373556E-02 
    7.7433333289742293E-02 
    7.7892446312039329E-02 
    8.0593958324099657E-02 
    8.0752638714731137E-02 
    7.7976741291234219E-02 
    7.7694980894205318E-02 
    8.0544044147534466E-02 
    7.9982590965634440E-02 
    7.7058292678339455E-02 
    7.6079768563762057E-02 
    7.9084132350358743E-02 
    7.7865927547916269E-02 
    7.4774312058701761E-02 
    7.3158646974543551E-02 
    7.6346747040249324E-02 
    7.4547053061106566E-02 
    7.1251429607529101E-02 
    6.9073423934948114E-02 
    7.2489218010988579E-02 
    7.0197754476464203E-02 
    6.6647708185534504E-02 
    6.3999883179754760E-02 
    6.7699534478894374E-02 
    6.5023975373288592E-02 
    6.1158249639703087E-02 
    5.8153914149357978E-02 
    6.2203167910806295E-02 
    5.9271921162450718E-02 
    5.5020771810498414E-02 
    5.1795299100371200E-02 
    5.6267704386222868E-02 
    5.3230488416417671E-02 
    4.8516082769486039E-02 
    4.5223042584713942E-02 
    5.0202548238692538E-02 
    4.7228404615896467E-02 
    4.1956433469961786E-02 
    3.8755952443351581E-02 
    4.4355247427120749E-02 
    4.1634318223409031E-02 
    3.5660485563223487E-02 
    3.2709020779929432E-02 
    3.9123684166089079E-02 
    3.6892354823373136E-02 
    2.9943764288312188E-02 
    2.7418724148680025E-02 
    3.5023555951373568E-02 
    5.9432770794708496E-02 
    5.7578065068755610E-02 
    6.0458254915771198E-02 
    6.2362970854947630E-02 
    6.5069476052169978E-02 
    6.3081657711903952E-02 
    6.5426972446220533E-02 
    6.7518407622515000E-02 
    6.9673127904912840E-02 
    6.7469556992977783E-02 
    6.9186219658912418E-02 
    7.1502057890437079E-02 
    7.2981854871370891E-02 
    7.0558026302501714E-02 
    7.1571310241834288E-02 
    7.4097558855993201E-02 
    7.4841384779909981E-02 
    7.2217558687717995E-02 
    7.2492787949197265E-02 
    7.5211207527159582E-02 
    7.5209226155629277E-02 
    7.2396802419331441E-02 
    7.1932539379971142E-02 
    7.4840960887012933E-02 
    7.4114581224530032E-02 
    7.1105577097169345E-02 
    6.9923817885641434E-02 
    7.3040509028637304E-02 
    7.1631232477699425E-02 
    6.8397329856541178E-02 
    6.6538323340173511E-02 
    6.9901275942135119E-02 
    6.7867282874563103E-02 
    6.4361238768284576E-02 
    6.1882925060614838E-02 
    6.5548177979102382E-02 
    6.2965379049619435E-02 
    5.9122887279050587E-02 
    5.6103577438337777E-02 
    6.0143027438359344E-02 
    5.7108199162440032E-02 
    5.2850692578029025E-02 
    4.9393430135576170E-02 
    5.3891045523872715E-02 
    5.0524788560947491E-02 
    4.5764626080504682E-02 
    4.2000632740768054E-02 
    4.7045452160763238E-02 
    4.3491138144191151E-02 
    3.8140610215414275E-02 
    3.4224605934807188E-02 
    3.9900603809029205E-02 
    3.6311019803428414E-02 
    3.0289741624797431E-02 
    2.6364817502276476E-02 
    3.2755248901813735E-02 
    2.9259475932588971E-02 
    2.2465639275683159E-02 
    1.8589947348544862E-02 
    2.5841330482612675E-02 
    2.2508935253350498E-02 
    1.4692456802007637E-02 
    1.0700511068408384E-02 
    1.9281383336990612E-02 
    5.5532150470487818E-02 
    5.3265586559482922E-02 
    5.6072727985698449E-02 
    5.8372862526006999E-02 
    6.0932079452939769E-02 
    5.8579243463023588E-02 
    6.0774370657721719E-02 
    6.3195241544164144E-02 
    6.5145057806347106E-02 
    6.2645355432686164E-02 
    6.4179019185769737E-02 
    6.6764289369848406E-02 
    6.8037793843144886E-02 
    6.5363130432716077E-02 
    6.6187334260888353E-02 
    6.8953626634972398E-02 
    6.9503386470968195E-02 
    6.6643627430002267E-02 
    6.6726489343832796E-02 
    6.9682099218814880E-02 
    6.9487893589885136E-02 
    6.6432810381007165E-02 
    6.5761738418513335E-02 
    6.8921638608380853E-02 
    6.7986636791454294E-02 
    6.4714525639054624E-02 
    6.3294422551235491E-02 
    6.6688414724690392E-02 
    6.5034623486239188E-02 
    6.1506643589556681E-02 
    5.9358418577862025E-02 
    6.3035048579874187E-02 
    6.0701725301328224E-02 
    5.6859142302103330E-02 
    5.4020635239530421E-02 
    5.8049154610131132E-02 
    5.5094611926723623E-02 
    5.0857527028473112E-02 
    4.7387763790705091E-02 
    5.1858533488874640E-02 
    4.8364952147795896E-02 
    4.3633215580001140E-02 
    3.9620347704691646E-02 
    4.4641946562971144E-02 
    4.0722076750901934E-02 
    3.5381011829316619E-02 
    3.0953685829119979E-02 
    3.6642757792269519E-02 
    3.2446229082074542E-02 
    2.6385434792688959E-02 
    2.1732845745498566E-02 
    2.8177861666114253E-02 
    2.3880491323649316E-02 
    1.7055369816477962E-02 
    1.2390749643454360E-02 
    1.9583999766964236E-02 
    1.5299282233751535E-02 
    7.7348856420348545E-03 
    3.2029016098841516E-03 
    1.1029152167173553E-02 
    6.6601047914805860E-03 
   -1.1839307202663092E-03 
   -7.4550667719538687E-03 
    1.7551508707476233E-03 
    5.0742992176754792E-02 
    4.7925762925474236E-02 
    5.0673832180432830E-02 
    5.3519838126860321E-02 
    5.5980765412880149E-02 
    5.3093484175330698E-02 
    5.5177814241321614E-02 
    5.8117307433352194E-02 
    5.9919585952666936E-02 
    5.6918865430449148E-02 
    5.8308015724427023E-02 
    6.1377150959270210E-02 
    6.2479865592816368E-02 
    5.9336554153102856E-02 
    5.9996245438055110E-02 
    6.3218624889827116E-02 
    6.3585818147995576E-02 
    6.0279738587832650E-02 
    6.0180788229138686E-02 
    6.3575550584571067E-02 
    6.3183699781566127E-02 
    5.9694346891424374E-02 
    5.8816604039330637E-02 
    6.2407891420867605E-02 
    6.1247457532264286E-02 
    5.7545018659297321E-02 
    5.5878362656459513E-02 
    5.9703415025383295E-02 
    5.7778487278586692E-02 
    5.3816783046818063E-02 
    5.1361899244845272E-02 
    5.5477188760492985E-02 
    5.2805997564930165E-02 
    4.8516968014878988E-02 
    4.5287167906976851E-02 
    4.9773648585802563E-02 
    4.6391587025984622E-02 
    4.1680084769600605E-02 
    3.7706517794832688E-02 
    4.2674614647324728E-02 
    3.8641698264248563E-02 
    3.3381614255487531E-02 
    2.8725883092784857E-02 
    3.4316802128610401E-02 
    2.9729709255710137E-02 
    2.3764986027267534E-02 
    1.8529370362401175E-02 
    2.4917883966752073E-02 
    1.9932255867167899E-02 
    1.3063428012647014E-02 
    7.4574628137498954E-03 
    1.4847514133152193E-02 
    9.7649822523087227E-03 
    1.9168480283162643E-03 
   -3.2516487278965900E-03 
    4.7517321513793221E-03 
   -3.6867910623229446E-04 
   -9.2432306808475657E-03 
   -1.6143117729328482E-02 
   -5.1530743907858192E-03 
   -7.5349118262072268E-03 
   -2.3456511006623205E-02 
   -2.8088784131840436E-02 
   -1.5699584733674738E-02 
    4.4773757996717310E-02 
    4.1246525656629104E-02 
    4.3935682595616116E-02 
    4.7493113332358658E-02 
    4.9873745166110324E-02 
    4.6277695716521294E-02 
    4.8268407976228049E-02 
    5.1910051645994236E-02 
    5.3595484525545835E-02 
    4.9902460802703087E-02 
    5.1173141866490350E-02 
    5.4922629394367532E-02 
    5.5883650410760183E-02 
    5.2072953388104887E-02 
    5.2594337295230491E-02 
    5.6470821093997994E-02 
    5.6676890710143792E-02 
    5.2730036438200033E-02 
    5.2473050357116122E-02 
    5.6495233479796604E-02 
    5.5919891854694717E-02 
    5.1816508602458435E-02 
    5.0753690151297402E-02 
    5.4945626049111518E-02 
    5.3568000971140443E-02 
    4.9278179979062711E-02 
    4.7384053739112704E-02 
    5.1783487986698490E-02 
    4.9589556803333198E-02 
    4.5066005854141833E-02 
    4.2319399076966475E-02 
    4.6984759409886181E-02 
    4.3968839308612964E-02 
    3.9140267828304619E-02 
    3.5525300248421689E-02 
    4.0542923615682867E-02 
    3.6709912967299821E-02 
    3.1471764847107876E-02 
    2.6978179048863866E-02 
    3.2475425069476711E-02 
    2.7849684781387454E-02 
    2.2047492783912805E-02 
    1.6695533441696771E-02 
    2.2849791975950731E-02 
    1.7497390550546606E-02 
    1.0951790094522375E-02 
    4.8134953740018019E-03 
    1.1806416789639522E-02 
    5.7826818181879285E-03 
   -1.7932737461733490E-03 
   -9.1329729127001529E-03 
   -5.3523332648134736E-04 
   -6.8162570748985848E-03 
   -1.8144096267816188E-02 
   -1.4879543244494291E-02 
   -1.0918368526480721E-02 
   -1.7596766399949445E-02 
   -2.4950089501148038E-02 
   -3.4124378152246004E-02 
   -2.5546480847202745E-02 
   -3.2850517873938168E-02 
   -4.2508754684283681E-02 
   -5.0539774530217164E-02 
   -3.9626385252470725E-02 
    3.7304431540997079E-02 
    3.2910040065734419E-02 
    3.5525036630439530E-02 
    3.9959859716126277E-02 
    4.2261531948203049E-02 
    3.7781628357592092E-02 
    3.9681550703469917E-02 
    4.4207406361061831E-02 
    4.5793304294677512E-02 
    4.1221937858783343E-02 
    4.2394908067581789E-02 
    4.7012575872324582E-02 
    4.7857320259853856E-02 
    4.3190731003544751E-02 
    4.3601097426782594E-02 
    4.8319797816259891E-02 
    4.8392815284141633E-02 
    4.3619443704244219E-02 
    4.3238907167081168E-02 
    4.8069162536524081E-02 
    4.7341081074641342E-02 
    4.2450909715832721E-02 
    4.1245252054513459E-02 
    4.6200246582267776E-02 
    4.4638087404691842E-02 
    3.9610859698370270E-02 
    3.7536458121096308E-02 
    4.2646133112502004E-02 
    4.0216216404807638E-02 
    3.5010926616117766E-02 
    3.2023249294990133E-02 
    3.7340481464985122E-02 
    3.4011271864513977E-02 
    2.8562288072746994E-02 
    2.4617443894643688E-02 
    3.0220930533462715E-02 
    2.5960447110146254E-02 
    2.0174890463232040E-02 
    1.5210912867589651E-02 
    2.1218052362743770E-02 
    1.5980909267721805E-02 
    9.6694730979387123E-03 
    3.5189947952613859E-03 
    1.0262540859228786E-02 
    4.1454464068964528E-03 
   -2.9728413612918640E-03 
   -9.7797128036897774E-03 
   -2.3527223258922522E-03 
   -9.2716986453406803E-03 
   -1.6939070198814476E-02 
   -2.4410641122343785E-02 
   -1.6692712682051379E-02 
   -2.4268909280757565E-02 
   -3.1892628170019290E-02 
   -3.8960500312920421E-02 
   -2.8927679057807448E-02 
   -3.6696862252006135E-02 
   -4.7153870986211682E-02 
   -5.5806626423745037E-02 
   -4.4948135023659956E-02 
   -5.3381097418245232E-02 
   -6.4718264315625107E-02 
   -7.3915086223946297E-02 
   -6.1991745230611378E-02 
    2.8030278354923836E-02 
    2.2640430856297970E-02 
    2.5127572524756656E-02 
    3.0592635460982932E-02 
    3.2794363827454376E-02 
    2.7255117210686731E-02 
    2.9049785116303545E-02 
    3.4644887988721153E-02 
    3.6142800362619042E-02 
    3.0511323676664235E-02 
    3.1614552146106839E-02 
    3.7275767042057942E-02 
    3.8028971407709715E-02 
    3.2331616591828490E-02 
    3.2652591679125709E-02 
    3.8393184194536321E-02 
    3.8364462687697991E-02 
    3.2582389519376385E-02 
    3.2120738030394946E-02 
    3.7937705165728891E-02 
    3.7103496204933410E-02 
    3.1256527481435079E-02 
    2.9972930403217746E-02 
    3.5849108307056565E-02 
    3.4160298818096055E-02 
    2.8251387060757520E-02 
    2.6073195588397928E-02 
    3.2022518698922912E-02 
    2.9421564409535080E-02 
    2.3420886374110866E-02 
    2.0278486452518254E-02 
    2.6343381081928866E-02 
    2.2772733732184400E-02 
    1.6620117185123143E-02 
    1.2445125696849997E-02 
    1.8699961809333650E-02 
    1.4113196358081502E-02 
    7.7430813231298889E-03 
    2.6518530406126812E-03 
    8.9992228269901858E-03 
    3.2023336135230435E-03 
   -3.0321056793259429E-03 
   -1.1492014147477962E-02 
   -3.6273974458696299E-03 
   -1.0499326129637878E-02 
   -1.8447767529116456E-02 
   -2.5574763586790110E-02 
   -1.7527922567894927E-02 
   -2.4901413719432428E-02 
   -3.3212836293659592E-02 
   -4.1296414815800771E-02 
   -3.2620864739457418E-02 
   -4.0579540748014675E-02 
   -4.9768346980872485E-02 
   -5.8629371162420882E-02 
   -4.8742463760472969E-02 
   -5.7502605011332891E-02 
   -6.7977137761130360E-02 
   -7.7770457666866605E-02 
   -6.6710139837010241E-02 
   -7.6243164553010209E-02 
   -8.7945624144982928E-02 
   -9.8489295802613244E-02 
   -8.6102638966452497E-02 
    1.6732266960145754E-02 
    1.0331475149591226E-02 
    1.2497262619061006E-02 
    1.9101016446991022E-02 
    2.1114991083692844E-02 
    1.4311319324825723E-02 
    1.5961577063770545E-02 
    2.2843732493323943E-02 
    2.4285413881343240E-02 
    1.7429871500634905E-02 
    1.8566435685594341E-02 
    2.5380170940545031E-02 
    2.6067001068528210E-02 
    1.9224490522279699E-02 
    1.9410511236510827E-02 
    2.6338179193505337E-02 
    2.6226807150177184E-02 
    1.9247625348664827E-02 
    1.8759123118150780E-02 
    2.5742765847816929E-02 
    2.4868452905939024E-02 
    1.7900989028756878E-02 
    1.6635957262481047E-02 
    2.3579527648632245E-02 
    2.1851749483989397E-02 
    1.4935279961001658E-02 
    1.2764361074923606E-02 
    1.9660465709911173E-02 
    1.6983864390479341E-02 
    1.0083450344834067E-02 
    6.9716989095869770E-03 
    1.3814991211880767E-02 
    1.0083101847237730E-02 
    3.1393180983897047E-03 
   -1.0023592665598965E-03 
    5.8322509236265318E-03 
    8.9811439402962467E-04 
   -6.8919754286849901E-03 
   -1.2699313818835023E-02 
   -3.9433878936817593E-03 
   -7.3283825075363190E-03 
   -1.8792556773836316E-02 
   -2.7089527502860530E-02 
   -2.0558041809767547E-02 
   -2.6653519627423822E-02 
   -3.4584455367427366E-02 
   -4.2417115040178859E-02 
   -3.3913008161595801E-02 
   -4.1855175740621767E-02 
   -5.0775894955344417E-02 
   -5.9674634896345502E-02 
   -5.0333820993918567E-02 
   -5.9293299070375213E-02 
   -6.9101264367297757E-02 
   -7.9048174580181499E-02 
   -6.8723194173121768E-02 
   -7.8640039877602222E-02 
   -8.9511203345846016E-02 
   -1.0047282803958829E-01 
   -8.9022345804903702E-02 
   -9.9833716260398955E-02 
   -1.1190751041805157E-01 
   -1.2379599327339401E-01 
   -1.1105647682478041E-01 
    3.5358548723045139E-03 
   -3.3986752742738283E-03 
   -2.2209505163613592E-03 
    5.3370613374062415E-03 
    6.7408958298765731E-03 
   -1.8142332134501015E-03 
   -2.5374162349044269E-04 
    8.3092041668740412E-03 
    9.9297053956583555E-03 
    1.8322806797687178E-03 
    3.6286362731501719E-03 
    1.1234080802431368E-02 
    1.1846054558349152E-02 
    4.1151458920619353E-03 
    3.4651758304476421E-03 
    1.1822047379293207E-02 
    1.1583938959710537E-02 
    3.1525442796491131E-03 
    2.8758678350766054E-03 
    1.1133271910742716E-02 
    1.0328082416872154E-02 
    2.1678933979385529E-03 
    1.0370149618294264E-03 
    9.1197410701051359E-03 
    7.4908630183595773E-03 
   -4.6069169786713414E-04 
   -2.2790864184423173E-03 
    5.3950802260686577E-03 
    2.6498096427939070E-03 
   -5.6750554976794385E-03 
   -6.5023069156613577E-03 
   -1.0087350444353342E-04 
   -4.4047401371906259E-03 
   -1.4079559956300560E-02 
   -1.9891554031687103E-02 
   -6.9733531478480470E-03 
   -1.5138197905991033E-02 
   -2.4599680141589267E-02 
   -3.0349615209736412E-02 
   -2.1272744005332352E-02 
   -2.7590236210341221E-02 
   -3.6384600814753205E-02 
   -4.3944612560893805E-02 
   -3.5304338836154379E-02 
   -4.3069558701434821E-02 
   -5.1964569462772336E-02 
   -6.0475868556448320E-02 
   -5.1267356086135085E-02 
   -6.0004223277160568E-02 
   -6.9551268962914511E-02 
   -7.9224277777203547E-02 
   -6.9305890488189067E-02 
   -7.9175009072856420E-02 
   -8.9506124485795355E-02 
   -1.0039597340761787E-01 
   -8.9607414353596065E-02 
   -1.0059450342652343E-01 
   -1.1188475718329506E-01 
   -1.2395632538615842E-01 
   -1.1212002000289194E-01 
   -1.2416233860462292E-01 
   -1.3658962539153030E-01 
   -1.4976244750563650E-01 
   -1.3670094712412864E-01 
   -9.7456135225747371E-03 
   -2.9432649095051944E-02 
   -2.4072114512108882E-02 
   -9.3211185593452262E-03 
   -1.1822035948265655E-02 
   -1.6136582823888083E-02 
   -1.4262608567070387E-02 