# vtk DataFile Version 2.0
Pressure Field Data 
ASCII 
DATASET UNSTRUCTURED_GRID 

POINTS 1089 float 

    0.0000000000000000E+00     0.0000000000000000E+00     0.0000000000000000E+00 
    1.0000000000000000E+00     0.0000000000000000E+00     0.0000000000000000E+00 
    1.0000000000000000E+00     1.0000000000000000E+00     0.0000000000000000E+00 
    0.0000000000000000E+00     1.0000000000000000E+00     0.0000000000000000E+00 
    3.1249999999941821E-02     0.0000000000000000E+00     0.0000000000000000E+00 
    6.2499999999872928E-02     0.0000000000000000E+00     0.0000000000000000E+00 
    9.3749999999823030E-02     0.0000000000000000E+00     0.0000000000000000E+00 
    1.2499999999977310E-01     0.0000000000000000E+00     0.0000000000000000E+00 
    1.5624999999968331E-01     0.0000000000000000E+00     0.0000000000000000E+00 
    1.8749999999959341E-01     0.0000000000000000E+00     0.0000000000000000E+00 
    2.1874999999950220E-01     0.0000000000000000E+00     0.0000000000000000E+00 
    2.4999999999941089E-01     0.0000000000000000E+00     0.0000000000000000E+00 
    2.8124999999931971E-01     0.0000000000000000E+00     0.0000000000000000E+00 
    3.1249999999922851E-01     0.0000000000000000E+00     0.0000000000000000E+00 
    3.4374999999913730E-01     0.0000000000000000E+00     0.0000000000000000E+00 
    3.7499999999904610E-01     0.0000000000000000E+00     0.0000000000000000E+00 
    4.0624999999895478E-01     0.0000000000000000E+00     0.0000000000000000E+00 
    4.3749999999886358E-01     0.0000000000000000E+00     0.0000000000000000E+00 
    4.6874999999877792E-01     0.0000000000000000E+00     0.0000000000000000E+00 
    4.9999999999869210E-01     0.0000000000000000E+00     0.0000000000000000E+00 
    5.3124999999876910E-01     0.0000000000000000E+00     0.0000000000000000E+00 
    5.6249999999884603E-01     0.0000000000000000E+00     0.0000000000000000E+00 
    5.9374999999892841E-01     0.0000000000000000E+00     0.0000000000000000E+00 
    6.2499999999901090E-01     0.0000000000000000E+00     0.0000000000000000E+00 
    6.5624999999909328E-01     0.0000000000000000E+00     0.0000000000000000E+00 
    6.8749999999917577E-01     0.0000000000000000E+00     0.0000000000000000E+00 
    7.1874999999925815E-01     0.0000000000000000E+00     0.0000000000000000E+00 
    7.4999999999934064E-01     0.0000000000000000E+00     0.0000000000000000E+00 
    7.8124999999942302E-01     0.0000000000000000E+00     0.0000000000000000E+00 
    8.1249999999950551E-01     0.0000000000000000E+00     0.0000000000000000E+00 
    8.4374999999958789E-01     0.0000000000000000E+00     0.0000000000000000E+00 
    8.7499999999967026E-01     0.0000000000000000E+00     0.0000000000000000E+00 
    9.0624999999975264E-01     0.0000000000000000E+00     0.0000000000000000E+00 
    9.3749999999983513E-01     0.0000000000000000E+00     0.0000000000000000E+00 
    9.6874999999991751E-01     0.0000000000000000E+00     0.0000000000000000E+00 
    1.0000000000000000E+00     3.1249999999941821E-02     0.0000000000000000E+00 
    1.0000000000000000E+00     6.2499999999872928E-02     0.0000000000000000E+00 
    1.0000000000000000E+00     9.3749999999823030E-02     0.0000000000000000E+00 
    1.0000000000000000E+00     1.2499999999977310E-01     0.0000000000000000E+00 
    1.0000000000000000E+00     1.5624999999968331E-01     0.0000000000000000E+00 
    1.0000000000000000E+00     1.8749999999959341E-01     0.0000000000000000E+00 
    1.0000000000000000E+00     2.1874999999950220E-01     0.0000000000000000E+00 
    1.0000000000000000E+00     2.4999999999941089E-01     0.0000000000000000E+00 
    1.0000000000000000E+00     2.8124999999931971E-01     0.0000000000000000E+00 
    1.0000000000000000E+00     3.1249999999922851E-01     0.0000000000000000E+00 
    1.0000000000000000E+00     3.4374999999913730E-01     0.0000000000000000E+00 
    1.0000000000000000E+00     3.7499999999904610E-01     0.0000000000000000E+00 
    1.0000000000000000E+00     4.0624999999895478E-01     0.0000000000000000E+00 
    1.0000000000000000E+00     4.3749999999886358E-01     0.0000000000000000E+00 
    1.0000000000000000E+00     4.6874999999877792E-01     0.0000000000000000E+00 
    1.0000000000000000E+00     4.9999999999869210E-01     0.0000000000000000E+00 
    1.0000000000000000E+00     5.3124999999876910E-01     0.0000000000000000E+00 
    1.0000000000000000E+00     5.6249999999884603E-01     0.0000000000000000E+00 
    1.0000000000000000E+00     5.9374999999892841E-01     0.0000000000000000E+00 
    1.0000000000000000E+00     6.2499999999901090E-01     0.0000000000000000E+00 
    1.0000000000000000E+00     6.5624999999909328E-01     0.0000000000000000E+00 
    1.0000000000000000E+00     6.8749999999917577E-01     0.0000000000000000E+00 
    1.0000000000000000E+00     7.1874999999925815E-01     0.0000000000000000E+00 
    1.0000000000000000E+00     7.4999999999934064E-01     0.0000000000000000E+00 
    1.0000000000000000E+00     7.8124999999942302E-01     0.0000000000000000E+00 
    1.0000000000000000E+00     8.1249999999950551E-01     0.0000000000000000E+00 
    1.0000000000000000E+00     8.4374999999958789E-01     0.0000000000000000E+00 
    1.0000000000000000E+00     8.7499999999967026E-01     0.0000000000000000E+00 
    1.0000000000000000E+00     9.0624999999975264E-01     0.0000000000000000E+00 
    1.0000000000000000E+00     9.3749999999983513E-01     0.0000000000000000E+00 
    1.0000000000000000E+00     9.6874999999991751E-01     0.0000000000000000E+00 
    9.6874999999986700E-01     1.0000000000000000E+00     0.0000000000000000E+00 
    9.3749999999973976E-01     1.0000000000000000E+00     0.0000000000000000E+00 
    9.0624999999967670E-01     1.0000000000000000E+00     0.0000000000000000E+00 
    8.7499999999950118E-01     1.0000000000000000E+00     0.0000000000000000E+00 
    8.4374999999971556E-01     1.0000000000000000E+00     0.0000000000000000E+00 
    8.1249999999991318E-01     1.0000000000000000E+00     0.0000000000000000E+00 
    7.8125000000010270E-01     1.0000000000000000E+00     0.0000000000000000E+00 
    7.5000000000034706E-01     1.0000000000000000E+00     0.0000000000000000E+00 
    7.1875000000056688E-01     1.0000000000000000E+00     0.0000000000000000E+00 
    6.8750000000078049E-01     1.0000000000000000E+00     0.0000000000000000E+00 
    6.5625000000097422E-01     1.0000000000000000E+00     0.0000000000000000E+00 
    6.2500000000121403E-01     1.0000000000000000E+00     0.0000000000000000E+00 
    5.9375000000151579E-01     1.0000000000000000E+00     0.0000000000000000E+00 
    5.6250000000164757E-01     1.0000000000000000E+00     0.0000000000000000E+00 
    5.3125000000182365E-01     1.0000000000000000E+00     0.0000000000000000E+00 
    5.0000000000205946E-01     1.0000000000000000E+00     0.0000000000000000E+00 
    4.6875000000194023E-01     1.0000000000000000E+00     0.0000000000000000E+00 
    4.3750000000182099E-01     1.0000000000000000E+00     0.0000000000000000E+00 
    4.0625000000169093E-01     1.0000000000000000E+00     0.0000000000000000E+00 
    3.7500000000156092E-01     1.0000000000000000E+00     0.0000000000000000E+00 
    3.4375000000143069E-01     1.0000000000000000E+00     0.0000000000000000E+00 
    3.1250000000130068E-01     1.0000000000000000E+00     0.0000000000000000E+00 
    2.8125000000117062E-01     1.0000000000000000E+00     0.0000000000000000E+00 
    2.5000000000104050E-01     1.0000000000000000E+00     0.0000000000000000E+00 
    2.1875000000091041E-01     1.0000000000000000E+00     0.0000000000000000E+00 
    1.8750000000078040E-01     1.0000000000000000E+00     0.0000000000000000E+00 
    1.5625000000065031E-01     1.0000000000000000E+00     0.0000000000000000E+00 
    1.2500000000052031E-01     1.0000000000000000E+00     0.0000000000000000E+00 
    9.3750000000390132E-02     1.0000000000000000E+00     0.0000000000000000E+00 
    6.2500000000260125E-02     1.0000000000000000E+00     0.0000000000000000E+00 
    3.1250000000130007E-02     1.0000000000000000E+00     0.0000000000000000E+00 
    0.0000000000000000E+00     9.6874999999986700E-01     0.0000000000000000E+00 
    0.0000000000000000E+00     9.3749999999973976E-01     0.0000000000000000E+00 
    0.0000000000000000E+00     9.0624999999967670E-01     0.0000000000000000E+00 
    0.0000000000000000E+00     8.7499999999950118E-01     0.0000000000000000E+00 
    0.0000000000000000E+00     8.4374999999971556E-01     0.0000000000000000E+00 
    0.0000000000000000E+00     8.1249999999991318E-01     0.0000000000000000E+00 
    0.0000000000000000E+00     7.8125000000010270E-01     0.0000000000000000E+00 
    0.0000000000000000E+00     7.5000000000034706E-01     0.0000000000000000E+00 
    0.0000000000000000E+00     7.1875000000056688E-01     0.0000000000000000E+00 
    0.0000000000000000E+00     6.8750000000078049E-01     0.0000000000000000E+00 
    0.0000000000000000E+00     6.5625000000097422E-01     0.0000000000000000E+00 
    0.0000000000000000E+00     6.2500000000121403E-01     0.0000000000000000E+00 
    0.0000000000000000E+00     5.9375000000151579E-01     0.0000000000000000E+00 
    0.0000000000000000E+00     5.6250000000164757E-01     0.0000000000000000E+00 
    0.0000000000000000E+00     5.3125000000182365E-01     0.0000000000000000E+00 
    0.0000000000000000E+00     5.0000000000205946E-01     0.0000000000000000E+00 
    0.0000000000000000E+00     4.6875000000194023E-01     0.0000000000000000E+00 
    0.0000000000000000E+00     4.3750000000182099E-01     0.0000000000000000E+00 
    0.0000000000000000E+00     4.0625000000169093E-01     0.0000000000000000E+00 
    0.0000000000000000E+00     3.7500000000156092E-01     0.0000000000000000E+00 
    0.0000000000000000E+00     3.4375000000143069E-01     0.0000000000000000E+00 
    0.0000000000000000E+00     3.1250000000130068E-01     0.0000000000000000E+00 
    0.0000000000000000E+00     2.8125000000117062E-01     0.0000000000000000E+00 
[...]
CELL_DATA 1024 
SCALARS Pressure float 1 
LOOKUP_TABLE default 

   -9.0400769286806693E-01 
   -8.9713848132999496E-01 
   -8.8951818595029952E-01 
   -8.8914772892657645E-01 
   -8.7869461082989142E-01 
   -8.8183006334587888E-01 
   -8.7511197881317171E-01 
   -8.7081557552240441E-01 
   -8.6464208213778082E-01 
   -8.6946393501004116E-01 
   -8.6478428435351073E-01 
   -8.5971405932901268E-01 
   -8.5576310677257927E-01 
   -8.6095051994437555E-01 
   -8.5785777878585123E-01 
   -8.5261927530338399E-01 
   -8.5016712098647851E-01 
   -8.5542218179502616E-01 
   -8.5357676515347691E-01 
   -8.4832320250590931E-01 
   -8.4702369784851994E-01 
   -8.5226688314981003E-01 
   -8.5144649876503564E-01 
   -8.4621715260205799E-01 
   -8.4585999737816364E-01 
   -8.5107542327824004E-01 
   -8.5111729640628753E-01 
   -8.4591364042888750E-01 
   -8.4634249717236942E-01 
   -8.5153809714638951E-01 
   -8.5230502354484561E-01 
   -8.4711259710002640E-01 
   -8.4819055779353192E-01 
   -8.5338562793288697E-01 
   -8.5474712796910046E-01 
   -8.4954279723476112E-01 
   -8.5113490326102259E-01 
   -8.5635583836912599E-01 
   -8.5817668443290940E-01 
   -8.5293110760329960E-01 
   -8.5489383030180943E-01 
   -8.6017276951507116E-01 
   -8.6230497605401435E-01 
   -8.5698327354654968E-01 
   -8.5915705615962967E-01 
   -8.6453158514855621E-01 
   -8.6680790293521637E-01 
   -8.6136989558348709E-01 
   -8.6357337144936963E-01 
   -8.6908588364355122E-01 
   -8.7131373159148129E-01 
   -8.6571586023722513E-01 
   -8.6774285537826257E-01 
   -8.7343542924881379E-01 
   -8.7538999830079278E-01 
   -8.6959818673450318E-01 
   -8.7122742005342879E-01 
   -8.7710978342719859E-01 
   -8.7851514911773121E-01 
   -8.7258682052705649E-01 
   -8.7366793632348105E-01 
   -8.7949596534087326E-01 
   -8.7984602065948703E-01 
   -8.7459853733965587E-01 
   -8.9461701181292341E-01 
   -8.9412685833433003E-01 
   -8.9003214947497822E-01 
   -8.8952288854494921E-01 
   -8.8378772146325313E-01 
   -8.8545105590033091E-01 
   -8.8087252588749831E-01 
   -8.7827597607854213E-01 
   -8.7333875421372353E-01 
   -8.7660539420869499E-01 
   -8.7280627180319270E-01 
   -8.6907827249438585E-01 
   -8.6549566888210328E-01 
   -8.6953890472647977E-01 
   -8.6681765952226753E-01 
   -8.6255657288901666E-01 
   -8.6021731496138076E-01 
   -8.6463275879386803E-01 
   -8.6296346688659231E-01 
   -8.5843442593962282E-01 
   -8.5716745914240688E-01 
   -8.6178452769136016E-01 
   -8.6106909541372756E-01 
   -8.5637929006098845E-01 
   -8.5603555363418871E-01 
   -8.6078991577634156E-01 
   -8.6091966203030446E-01 
   -8.5610386065891109E-01 
   -8.5655302401227384E-01 
   -8.6143087608417623E-01 
   -8.6229573615720889E-01 
   -8.5735236616679156E-01 
   -8.5847111779661500E-01 
   -8.6348575565572583E-01 
   -8.6497146209303899E-01 
   -8.5987789611498677E-01 
   -8.6154024592365686E-01 
   -8.6672207481312058E-01 
   -8.6870518725018264E-01 
   -8.6342422584586009E-01 
   -8.6549402338304571E-01 
   -8.7088645040874513E-01 
   -8.7322924941242186E-01 
   -8.6771158251631608E-01 
   -8.7003622664228886E-01 
   -8.7569435812624319E-01 
   -8.7823954771094670E-01 
   -8.7242425181798655E-01 
   -8.7482845316748825E-01 
   -8.8081910639860617E-01 
   -8.8338319357650275E-01 
   -8.7719750659519680E-01 
   -8.7947504103483620E-01 
   -8.8587688242500617E-01 
   -8.8823861989038777E-01 
   -8.8159801736674837E-01 
   -8.8349350467403709E-01 
   -8.9039761448719990E-01 
   -8.9226937981361631E-01 
   -8.8507169678665165E-01 
   -8.8621029989000222E-01 
   -8.9374866112016405E-01 
   -8.9470098662030173E-01 
   -8.8672105649136501E-01 
   -8.9473059015424672E-01 
   -8.9601282730710607E-01 
   -8.9260309016041783E-01 
   -8.9108801300339080E-01 
   -8.8717791320898898E-01 
   -8.8909676606019106E-01 
   -8.8562974624531265E-01 
   -8.8325711218643210E-01 
   -8.7954056373898748E-01 
   -8.8234085177046662E-01 
   -8.7934073407483349E-01 
   -8.7617100117929503E-01 
   -8.7322953483094101E-01 
   -8.7670527670064069E-01 
   -8.7448034090146365E-01 
   -8.7075482691747741E-01 
   -8.6875915543380788E-01 
   -8.7268942624703560E-01 
   -8.7134058929054059E-01 
   -8.6723929654654874E-01 
   -8.6618318289769525E-01 
   -8.7043161376425893E-01 
   -8.6995351808579879E-01 
   -8.6557372854422521E-01 
   -8.6539091279908065E-01 
   -8.6989279215561144E-01 
   -8.7023275381356946E-01 
   -8.6561284329030874E-01 
   -8.6621623609813847E-01 
   -8.7095432715042165E-01 
   -8.7203645178387557E-01 
   -8.6717656964519352E-01 
   -8.6846805719916964E-01 
   -8.7345626132916288E-01 
   -8.7518911764860230E-01 
   -8.7006352126214659E-01 
   -8.7193421246364156E-01 
   -8.7720855634713135E-01 
   -8.7948617394988882E-01 
   -8.7404959701349449E-01 
   -8.7637712163891823E-01 
   -8.8199147759015384E-01 
   -8.8469170346807235E-01 
   -8.7888195668099123E-01 
   -8.8152670978581249E-01 
   -8.8755160622098550E-01 
   -8.9053321311984446E-01 
   -8.8427109368247903E-01 
   -8.8707151814874952E-01 
   -8.9359553081502141E-01 
   -8.9669418627525521E-01 
   -8.8988055698528001E-01 
   -8.9264621122420651E-01 
   -8.9978098307409249E-01 
   -9.0280336925633775E-01 
   -8.9531085692269452E-01 
   -8.9780975719078393E-01 
   -9.0570387987065215E-01 
   -9.0841980686122092E-01 
   -9.0006914566541318E-01 
   -9.0200448269179923E-01 
   -9.1088380487253373E-01 
   -9.1302704774103494E-01 
   -9.0352137413763423E-01 
   -8.9777894703798811E-01 
   -8.9993807296030781E-01 
   -8.9674798729540595E-01 
   -8.9450363952113510E-01 
   -8.9125325659128662E-01 
   -8.9366899973303815E-01 
   -8.9074495778527285E-01 
   -8.8810274775015396E-01 
   -8.8514039934130551E-01 
   -8.8803280532778961E-01 
   -8.8558974101525978E-01 
   -8.8244661503863631E-01 
   -8.8008430347467981E-01 
   -8.8346514266151122E-01 
   -8.8169717191819674E-01 
   -8.7809734401301009E-01 
   -8.7651295416931718E-01 
   -8.8031248856309707E-01 
   -8.7932752175659967E-01 
   -8.7534520934286508E-01 
   -8.7459836468356056E-01 
   -8.7875024824265013E-01 
   -8.7858191675951147E-01 
   -8.7426950552568805E-01 
   -8.7435047685772771E-01 
   -8.7881848600129320E-01 
   -8.7945172229601287E-01 
   -8.7482920367029049E-01 
   -8.7569054986029360E-01 
   -8.8046999038103835E-01 
   -8.8185878951973251E-01 
   -8.7691684714969831E-01 
   -8.7848819544324852E-01 
   -8.8360110130027980E-01 
   -8.8567759453764894E-01 
   -8.8038260850976868E-01 
   -8.8257605615909596E-01 
   -8.8806673120397661E-01 
   -8.9074480291063807E-01 
   -8.8504243728477661E-01 
   -8.8775350613187298E-01 
   -8.9368592070751518E-01 
   -8.9686197491824593E-01 
   -8.9067876610221275E-01 
   -8.9378533871698684E-01 
   -9.0024257760863069E-01 
   -9.0379499863806700E-01 
   -8.9703781225883461E-01 
   -9.0039807207623812E-01 
   -9.0748410707578453E-01 
   -9.1127233555653286E-01 
   -9.0382511775196706E-01 
   -9.0727488314052362E-01 
   -9.1511969849031305E-01 
   -9.1898392212513869E-01 
   -9.1070010581381722E-01 
   -9.1405036076142376E-01 
   -9.2282079271887463E-01 
   -9.2658490354563372E-01 
   -9.1727251086098394E-01 
   -9.2031206200507798E-01 
   -9.3023107677258687E-01 
   -9.3371678568242356E-01 
   -9.2311621715275660E-01 
   -9.0245284414331772E-01 
   -9.0531574111967084E-01 
   -9.0222524159869710E-01 
   -8.9932079059381087E-01 
   -8.9636252132440086E-01 
   -8.9935565845696330E-01 
   -8.9672558599474139E-01 
   -8.9360552763595746E-01 
   -8.9108769935231702E-01 
   -8.9436132757483633E-01 
   -8.9229256984215610E-01 
   -8.8884985546325046E-01 
   -8.8692994574000938E-01 
   -8.9054847233796597E-01 
   -8.8915490172837985E-01 
   -8.8535967392546178E-01 
   -8.8416317687152490E-01 
   -8.8813289950154195E-01 
   -8.8749812305337361E-01 
   -8.8335704749653809E-01 
   -8.8295104935158586E-01 
   -8.8726092448356630E-01 
   -8.8742675853161068E-01 
   -8.8294907423797464E-01 
   -8.8335008579776719E-01 
   -8.8799671896711818E-01 
   -8.8896806953150398E-01 
   -8.8414892976737847E-01 
   -8.8533697397104694E-01 
   -8.9033470983714191E-01 
   -8.9208755118637106E-01 
   -8.8690258342183237E-01 
   -8.8883145447826450E-01 
   -8.9421480191144009E-01 
   -8.9670217309085287E-01 
   -8.9110683673099356E-01 
   -8.9370967018469671E-01 
   -8.9953302023018833E-01 
   -9.0268843760428974E-01 
   -8.9661866168660509E-01 
   -8.9981032065746791E-01 
   -9.0614732148203814E-01 
   -9.0988641759924882E-01 
   -9.0325897095751961E-01 
   -9.0693675363223736E-01 
   -9.1388036774804815E-01 
   -9.1810177081297473E-01 
   -9.1081363495881906E-01 
   -9.1485743604710335E-01 
   -9.2252127552366359E-01 
   -9.2710772642924033E-01 
   -9.1903390612817781E-01 
   -9.2330687224233610E-01 
   -9.3182839159476316E-01 
   -9.3664931085195702E-01 
   -9.2763851670485054E-01 
   -9.3198986101325487E-01 
   -9.4153581576941292E-01 
   -9.4645328209789592E-01 
   -9.3632156733196226E-01 
   -9.4059519254537449E-01 
   -9.5136817091665238E-01 
   -9.5624937397863030E-01 
   -9.4477500198767794E-01 
   -9.0853697235864095E-01 
   -9.1213784516378538E-01 
   -9.0910081955679689E-01 
   -9.0547712904053101E-01 
   -9.0267480809611145E-01 
   -9.0635055715051516E-01 
   -9.0389783371345300E-01 
   -9.0014362246272106E-01 
   -8.9790277769487059E-01 
   -9.0175748200821493E-01 
   -8.9994686058053497E-01 
   -8.9597453242567293E-01 
   -8.9438161852233788E-01 
   -8.9848415563503792E-01 
   -8.9738685505424554E-01 
   -8.9314515179157394E-01 
   -8.9228323110106522E-01 
   -8.9667058746364370E-01 
   -8.9634836487890801E-01 
   -8.9181018536905776E-01 
   -8.9173631509022966E-01 
   -8.9643017967738270E-01 
   -8.9692286518420561E-01 
   -8.9206795355489521E-01 
   -8.9280770025458578E-01 
   -8.9783012681426755E-01 
   -8.9915266630209212E-01 
   -8.9395472079487015E-01 
   -8.9550504759077676E-01 
   -9.0088834315650590E-01 
   -9.0303233783128922E-01 
   -8.9745184628842745E-01 
   -8.9978563386963772E-01 
   -9.0557729740233917E-01 
   -9.0851345634878633E-01 
   -9.0249444744983165E-01 
   -9.0556397025067170E-01 
   -9.1182873303113510E-01 
   -9.1550880762645104E-01 
   -9.0897762514529978E-01 
   -9.1271664806439257E-01 
   -9.1953719053702276E-01 
   -9.2389529235240742E-01 
   -9.1676015446376624E-01 
   -9.2108521269232602E-01 
   -9.2856250782471361E-01 
   -9.3351632735628576E-01 
   -9.2566693897093544E-01 
   -9.3047863018584653E-01 
   -9.3873249041074547E-01 
   -9.4418519613951446E-01 
   -9.3549195316059020E-01 
   -9.4067721256488757E-01 
   -9.4984738725277329E-01 
   -9.5569112330201367E-01 
   -9.4600372388776699E-01 
   -9.5144032114395416E-01 
   -9.6168805786424139E-01 
   -9.6781002848240916E-01 
   -9.5695602780125355E-01 
   -9.6252090673101554E-01 
   -9.7402975523732116E-01 
   -9.8032161994764899E-01 
   -9.6810707116875216E-01 
   -9.1614693302091932E-01 
   -9.2059776063661469E-01 
   -9.1758904059063973E-01 
   -9.1312661872240952E-01 
   -9.1041693998719808E-01 
   -9.1491072989272515E-01 
   -9.1257112923725059E-01 
   -9.0802706578516479E-01 
   -9.0596914213408142E-01 
   -9.1058077216386812E-01 
   -9.0895180842080880E-01 
   -9.0425734046236406E-01 
   -9.0290672357385682E-01 
   -9.0769723118212231E-01 
   -9.0683008072209392E-01 
   -9.0193214549948664E-01 
   -9.0134733034586678E-01 
   -9.0636272777581972E-01 
   -9.0630629519609784E-01 
   -9.0116419260781411E-01 
   -9.0139239694357187E-01 
   -9.0667023507101319E-01 
   -9.0746204916076778E-01 
   -9.0203911786161572E-01 
   -9.0310894582523205E-01 
   -9.0868712487605274E-01 
   -9.1034865437015511E-01 
   -9.0460388784351664E-01 
   -9.0652342006634790E-01 
   -9.1244760674750958E-01 
   -9.1498272942295689E-01 
   -9.0886456180655528E-01 
   -9.1162195173479144E-01 
   -9.1795056187256985E-01 
   -9.2134545200330220E-01 
   -9.1478791642961532E-01 
   -9.1835252876088791E-01 
   -9.2515957150100858E-01 
   -9.2938293161566710E-01 
   -9.2230365897857858E-01 
   -9.2662702526494645E-01 
   -9.3400340493785172E-01 
   -9.3900676188109766E-01 
   -9.3130625324996930E-01 
   -9.3632295584712344E-01 
   -9.4437673282540369E-01 
   -9.5009510811667963E-01 
   -9.4165684587787413E-01 
   -9.4728589434768407E-01 
   -9.5614188818233248E-01 
   -9.6249549468600126E-01 
   -9.5318654684847937E-01 
   -9.5933400921771705E-01 
   -9.6913305067937583E-01 
   -9.7603073296252152E-01 
   -9.6570261095816845E-01 
   -9.7226625042726877E-01 
   -9.8316419330712068E-01 
   -9.9050903697632042E-01 
   -9.7899891855467946E-01 
   -9.8587528673246549E-01 
   -9.9804133747269563E-01 
   -1.0057381564703325E+00 
   -9.9287132881629703E-01 
   -9.2552737086427972E-01 
   -9.3097541463070421E-01 
   -9.2797645769005299E-01 
   -9.2252567786634154E-01 
   -9.1987087548465352E-01 
   -9.2533808495373171E-01 
   -9.2306810685089602E-01 
   -9.1757086335044857E-01 
   -9.1563526778968307E-01 
   -9.2117572326341013E-01 
   -9.1967122250410460E-01 
   -9.1407502300703514E-01 
   -9.1290182903374595E-01 
   -9.1856558735797256E-01 
   -9.1787005853207682E-01 
   -9.1212756789505711E-01 
   -9.1176374843305885E-01 
   -9.1759570254219502E-01 
   -9.1775301908024076E-01 
   -9.1182102693159273E-01 
   -9.1230882528033508E-01 
   -9.1835160770174751E-01 
   -9.1939989962024371E-01 
   -9.1323504758939167E-01 
   -9.1460588262105813E-01 
   -9.2090494992703797E-01 
   -9.2287227933976879E-01 
   -9.1642567292601917E-01 
   -9.1869683051530149E-01 
   -9.2530575216607203E-01 
   -9.2820747761333500E-01 
   -9.2141978131832192E-01 
   -9.2459292492923151E-01 
   -9.3157772391175819E-01 
   -9.3541483816649529E-01 
   -9.2821260109103987E-01 
   -9.3227305933867977E-01 
   -9.3971516888122042E-01 
   -9.4447299236487670E-01 
   -9.3676643287488492E-01 
   -9.4168272191477442E-01 
   -9.4968044851403932E-01 
   -9.5532749551942853E-01 
   -9.4700979527240714E-01 
   -9.5273342168300057E-01 
   -9.6140189653588315E-01 
   -9.6788925376230894E-01 
   -9.5883734395407716E-01 
   -9.6530340910292922E-01 
   -9.7477310598937128E-01 
   -9.8203510365784030E-01 
   -9.7211176570459612E-01 
   -9.7924113536822754E-01 
   -9.8965527008822241E-01 
   -9.9761234849256375E-01 
   -9.8666915848468306E-01 
   -9.9437280553740059E-01 
   -1.0058842222450890E+00 
   -1.0144483825021422E+00 
   -1.0023288353698359E+00 
   -1.0105142724953782E+00 
   -1.0232824057120371E+00 
   -1.0323643975345596E+00 
   -1.0189068688192040E+00 
   -9.3698357464740534E-01 
   -9.4359520529392582E-01 
   -9.4058910942575880E-01 
   -9.3398315952411748E-01 
   -9.3135453756303888E-01 
   -9.3796369571993643E-01 
   -9.3572721186993091E-01 
   -9.2910565224199027E-01 
   -9.2724561909070635E-01 
   -9.3388894568659309E-01 
   -9.3245903312237655E-01 
   -9.2578449448189748E-01 
   -9.2473297692829515E-01 
   -9.3144822030865637E-01 
   -9.3086760003914282E-01 
   -9.2410207254334553E-01 
   -9.2390275555601065E-01 
   -9.3072834243767000E-01 
   -9.3104143576359433E-01 
   -9.2414564844181135E-01 
   -9.2484073715678172E-01 
   -9.3181744777572495E-01 
   -9.3306631216960600E-01 
   -9.2599712775228127E-01 
   -9.2762284306867882E-01 
   -9.3479713938654252E-01 
   -9.3701804718875492E-01 
   -9.2972465305805385E-01 
   -9.3230792963770481E-01 
   -9.3973600402927626E-01 
   -9.4295667738040589E-01 
   -9.3537651648215214E-01 
   -9.3893260534143830E-01 
   -9.4668427966792223E-01 
   -9.5092140613593412E-01 
   -9.4297661288916845E-01 
   -9.4750705543048930E-01 
   -9.5566886174623711E-01 
   -9.6092547807126361E-01 
   -9.5252042282139693E-01 
   -9.5801105749411586E-01 
   -9.6668792606541731E-01 
   -9.7295053650697294E-01 
   -9.6397104932120503E-01 
   -9.7039016178070436E-01 
   -9.7970514646231954E-01 
   -9.8694099656739942E-01 
   -9.7725580880998975E-01 
   -9.8455310379541339E-01 
   -9.9464470884269407E-01 
   -1.0028003760241748E+00 
   -9.9226500095289027E-01 
   -1.0003725434527391E+00 
   -1.0113897883291627E+00 
   -1.0203928096695747E+00 
   -1.0088552210406625E+00 
   -1.0176914229090428E+00 
   -1.0297878916030514E+00 
   -1.0395526822436265E+00 
   -1.0268589516523907E+00 
   -1.0363355463295130E+00 
   -1.0496646564305547E+00 
   -1.0601016747731788E+00 
   -1.0460993536662688E+00 
   -9.5085512021630636E-01 
   -9.5880948578447145E-01 
   -9.5577879406952826E-01 
   -9.4783899886907941E-01 
   -9.4521019500066794E-01 
   -9.5313979439770569E-01 
   -9.5090177185502234E-01 
   -9.4297740571718469E-01 
   -9.4115029707578146E-01 
   -9.4907495121124030E-01 
   -9.4767032184305111E-01 
   -9.3973932967650120E-01 
   -9.3875555797246768E-01 
   -9.4669945736705718E-01 
   -9.4617433861027667E-01 
   -9.3821041682458584E-01 
   -9.3811550685242739E-01 
   -9.4610718435253427E-01 
   -9.4651029151287991E-01 
   -9.3848238722782473E-01 
   -9.3932238109776023E-01 
   -9.4739588448507439E-01 
   -9.4877597162755167E-01 
   -9.4064639522634952E-01 
   -9.4246475212456871E-01 
   -9.5066220525434852E-01 
   -9.5306573986503973E-01 
   -9.4478703021902510E-01 
   -9.4762190570459803E-01 
   -9.5599708192261224E-01 
   -9.5946592340963699E-01 
   -9.5097698873522984E-01 
   -9.5485864658990116E-01 
   -9.6348095086104613E-01 
   -9.6804962183293752E-01 
   -9.5927180747931018E-01 
   -9.6421974086867290E-01 
   -9.7317790216408873E-01 
   -9.7886996040006569E-01 
   -9.6970381379909643E-01 
   -9.7572322795810651E-01 
   -9.8512782100176410E-01 
   -9.9195098614668753E-01 
   -9.8227474938951653E-01 
   -9.8935245170303654E-01 
   -9.9933604761374673E-01 
   -1.0072763254243851E+00 
   -9.9694750383982655E-01 
   -1.0050480432910929E+00 
   -1.0157615873358790E+00 
   -1.0247779194711772E+00 
   -1.0136391821943742E+00 
   -1.0227031924836900E+00 
   -1.0343078267129484E+00 
   -1.0443306321284851E+00 
   -1.0322199019073639E+00 
   -1.0421673010168866E+00 
   -1.0548232065960121E+00 
   -1.0657609866700488E+00 
   -1.0525223126742551E+00 
   -1.0632616198844338E+00 
   -1.0771191390164121E+00 
   -1.0888736366591993E+00 
   -1.0743624057781083E+00 
   -9.6750579662031910E-01 
   -9.7699292307610275E-01 
   -9.7391827429912403E-01 
   -9.6445571515155293E-01 
   -9.6179937365888213E-01 
   -9.7123696829710637E-01 
   -9.6895995724665607E-01 
   -9.5954679638115470E-01 
   -9.5770894325013123E-01 
   -9.6709913128180958E-01 
   -9.6566708112113731E-01 
   -9.5629751522157247E-01 
   -9.5532478123726416E-01 
   -9.6467692279849171E-01 
   -9.6414217777009681E-01 
   -9.5480343007390023E-01 
   -9.5474644324651059E-01 
   -9.6407669190034628E-01 
   -9.6449457639944836E-01 
   -9.5516698268691591E-01 
   -9.5607828677609630E-01 
   -9.6541015704527333E-01 
   -9.6683792151840320E-01 
   -9.5749356872742519E-01 
   -9.5942591140478661E-01 
   -9.6879245692651372E-01 
   -9.7128837028100556E-01 
   -9.6188815215978773E-01 
   -9.6489275027505772E-01 
   -9.7434018403396394E-01 
   -9.7796219716830213E-01 
   -9.6845162834313481E-01 
   -9.7257597769369419E-01 
   -9.8216830016160228E-01 
   -9.8697172984728088E-01 
   -9.7727601717587531E-01 
   -9.8256069470787344E-01 
   -9.9238474833660906E-01 
   -9.9841822959498183E-01 
   -9.8843732274261686E-01 
   -9.9491114318892881E-01 
   -1.0050811393367256E+00 
   -1.0123799006763849E+00 
   -1.0019848257232997E+00 
   -1.0096579173809814E+00 
   -1.0203176523398052E+00 
   -1.0288934317043954E+00 
   -1.0179262821400690E+00 
   -1.0267815970069609E+00 
   -1.0381013546654918E+00 
   -1.0479299187303377E+00 
   -1.0362110030386902E+00 
   -1.0461970376139280E+00 
   -1.0583616179611801E+00 
   -1.0693731076746826E+00 
   -1.0567179823012576E+00 
   -1.0677487257607683E+00 
   -1.0809361525096537E+00 
   -1.0930194758966187E+00 
   -1.0792621400333891E+00 
   -1.0912307968573356E+00 
   -1.1055913543539464E+00 
   -1.1186223939958841E+00 
   -1.1036286515154743E+00 
   -9.8732123398523686E-01 
   -9.9854281579181214E-01 
   -9.9540145030525362E-01 
   -9.8421637078403856E-01 
   -9.8150183541957914E-01 
   -9.9264454423100046E-01 
   -9.9028584780187512E-01 