# vtk DataFile Version 2.0
Pressure Field Data 
ASCII 
DATASET UNSTRUCTURED_GRID 

POINTS 1089 float 

    0.0000000000000000E+00     0.0000000000000000E+00     0.0000000000000000E+00 
    1.0000000000000000E+00     0.0000000000000000E+00     0.0000000000000000E+00 
    1.0000000000000000E+00     1.0000000000000000E+00     0.0000000000000000E+00 
    0.0000000000000000E+00     1.0000000000000000E+00     0.0000000000000000E+00 
    3.1249999999941821E-02     0.0000000000000000E+00     0.0000000000000000E+00 
    6.2499999999872928E-02     0.0000000000000000E+00     0.0000000000000000E+00 
    9.3749999999823030E-02     0.0000000000000000E+00     0.0000000000000000E+00 
    1.2499999999977310E-01     0.0000000000000000E+00     0.0000000000000000E+00 
    1.5624999999968331E-01     0.0000000000000000E+00     0.0000000000000000E+00 
    1.8749999999959341E-01     0.0000000000000000E+00     0.0000000000000000E+00 
    2.1874999999950220E-01     0.0000000000000000E+00     0.0000000000000000E+00 
    2.4999999999941089E-01     0.0000000000000000E+00     0.0000000000000000E+00 
    2.8124999999931971E-01     0.0000000000000000E+00     0.0000000000000000E+00 
    3.1249999999922851E-01     0.0000000000000000E+00     0.0000000000000000E+00 
    3.4374999999913730E-01     0.0000000000000000E+00     0.0000000000000000E+00 
    3.7499999999904610E-01     0.0000000000000000E+00     0.0000000000000000E+00 
    4.0624999999895478E-01     0.0000000000000000E+00     0.0000000000000000E+00 
    4.3749999999886358E-01     0.0000000000000000E+00     0.0000000000000000E+00 
    4.6874999999877792E-01     0.0000000000000000E+00     0.0000000000000000E+00 
    4.9999999999869210E-01     0.0000000000000000E+00     0.0000000000000000E+00 
    5.3124999999876910E-01     0.0000000000000000E+00     0.0000000000000000E+00 
    5.6249999999884603E-01     0.0000000000000000E+00     0.0000000000000000E+00 
    5.9374999999892841E-01     0.0000000000000000E+00     0.0000000000000000E+00 
    6.2499999999901090E-01     0.0000000000000000E+00     0.0000000000000000E+00 
    6.5624999999909328E-01     0.0000000000000000E+00     0.0000000000000000E+00 
    6.8749999999917577E-01     0.0000000000000000E+00     0.0000000000000000E+00 
    7.1874999999925815E-01     0.0000000000000000E+00     0.0000000000000000E+00 
    7.4999999999934064E-01     0.0000000000000000E+00     0.0000000000000000E+00 
    7.8124999999942302E-01     0.0000000000000000E+00     0.0000000000000000E+00 
    8.1249999999950551E-01     0.0000000000000000E+00     0.0000000000000000E+00 
    8.4374999999958789E-01     0.0000000000000000E+00     0.0000000000000000E+00 
    8.7499999999967026E-01     0.0000000000000000E+00     0.0000000000000000E+00 
    9.0624999999975264E-01     0.0000000000000000E+00     0.0000000000000000E+00 
    9.3749999999983513E-01     0.0000000000000000E+00     0.0000000000000000E+00 
    9.6874999999991751E-01     0.0000000000000000E+00     0.0000000000000000E+00 
    1.0000000000000000E+00     3.1249999999941821E-02     0.0000000000000000E+00 
    1.0000000000000000E+00     6.2499999999872928E-02     0.0000000000000000E+00 
    1.0000000000000000E+00     9.3749999999823030E-02     0.0000000000000000E+00 
    1.0000000000000000E+00     1.2499999999977310E-01     0.0000000000000000E+00 
    1.0000000000000000E+00     1.5624999999968331E-01     0.0000000000000000E+00 
    1.0000000000000000E+00     1.8749999999959341E-01     0.0000000000000000E+00 
    1.0000000000000000E+00     2.1874999999950220E-01     0.0000000000000000E+00 
    1.0000000000000000E+00     2.4999999999941089E-01     0.0000000000000000E+00 
    1.0000000000000000E+00     2.8124999999931971E-01     0.0000000000000000E+00 
    1.0000000000000000E+00     3.1249999999922851E-01     0.0000000000000000E+00 
    1.0000000000000000E+00     3.4374999999913730E-01     0.0000000000000000E+00 
    1.0000000000000000E+00     3.7499999999904610E-01     0.0000000000000000E+00 
    1.0000000000000000E+00     4.0624999999895478E-01     0.0000000000000000E+00 
    1.0000000000000000E+00     4.3749999999886358E-01     0.0000000000000000E+00 
    1.0000000000000000E+00     4.6874999999877792E-01     0.0000000000000000E+00 
    1.0000000000000000E+00     4.9999999999869210E-01     0.0000000000000000E+00 
    1.0000000000000000E+00     5.3124999999876910E-01     0.0000000000000000E+00 
    1.0000000000000000E+00     5.6249999999884603E-01     0.0000000000000000E+00 
    1.0000000000000000E+00     5.9374999999892841E-01     0.0000000000000000E+00 
    1.0000000000000000E+00     6.2499999999901090E-01     0.0000000000000000E+00 
    1.0000000000000000E+00     6.5624999999909328E-01     0.0000000000000000E+00 
    1.0000000000000000E+00     6.8749999999917577E-01     0.0000000000000000E+00 
    1.0000000000000000E+00     7.1874999999925815E-01     0.0000000000000000E+00 
    1.0000000000000000E+00     7.4999999999934064E-01     0.0000000000000000E+00 
    1.0000000000000000E+00     7.8124999999942302E-01     0.0000000000000000E+00 
    1.0000000000000000E+00     8.1249999999950551E-01     0.0000000000000000E+00 
    1.0000000000000000E+00     8.4374999999958789E-01     0.0000000000000000E+00 
    1.0000000000000000E+00     8.7499999999967026E-01     0.0000000000000000E+00 
    1.0000000000000000E+00     9.0624999999975264E-01     0.0000000000000000E+00 
    1.0000000000000000E+00     9.3749999999983513E-01     0.0000000000000000E+00 
    1.0000000000000000E+00     9.6874999999991751E-01     0.0000000000000000E+00 
    9.6874999999986700E-01     1.0000000000000000E+00     0.0000000000000000E+00 
    9.3749999999973976E-01     1.0000000000000000E+00     0.0000000000000000E+00 
    9.0624999999967670E-01     1.0000000000000000E+00     0.0000000000000000E+00 
    8.7499999999950118E-01     1.0000000000000000E+00     0.0000000000000000E+00 
    8.4374999999971556E-01     1.0000000000000000E+00     0.0000000000000000E+00 
    8.1249999999991318E-01     1.0000000000000000E+00     0.0000000000000000E+00 
    7.8125000000010270E-01     1.0000000000000000E+00     0.0000000000000000E+00 
    7.5000000000034706E-01     1.0000000000000000E+00     0.0000000000000000E+00 
    7.1875000000056688E-01     1.0000000000000000E+00     0.0000000000000000E+00 
    6.8750000000078049E-01     1.0000000000000000E+00     0.0000000000000000E+00 
    6.5625000000097422E-01     1.0000000000000000E+00     0.0000000000000000E+00 
    6.2500000000121403E-01     1.0000000000000000E+00     0.0000000000000000E+00 
    5.9375000000151579E-01     1.0000000000000000E+00     0.0000000000000000E+00 
    5.6250000000164757E-01     1.0000000000000000E+00     0.0000000000000000E+00 
    5.3125000000182365E-01     1.0000000000000000E+00     0.0000000000000000E+00 
    5.0000000000205946E-01     1.0000000000000000E+00     0.0000000000000000E+00 
    4.6875000000194023E-01     1.0000000000000000E+00     0.0000000000000000E+00 
    4.3750000000182099E-01     1.0000000000000000E+00     0.0000000000000000E+00 
    4.0625000000169093E-01     1.0000000000000000E+00     0.0000000000000000E+00 
    3.7500000000156092E-01     1.0000000000000000E+00     0.0000000000000000E+00 
    3.4375000000143069E-01     1.0000000000000000E+00     0.0000000000000000E+00 
    3.1250000000130068E-01     1.0000000000000000E+00     0.0000000000000000E+00 
    2.8125000000117062E-01     1.0000000000000000E+00     0.0000000000000000E+00 
    2.5000000000104050E-01     1.0000000000000000E+00     0.0000000000000000E+00 
    2.1875000000091041E-01     1.0000000000000000E+00     0.0000000000000000E+00 
    1.8750000000078040E-01     1.0000000000000000E+00     0.0000000000000000E+00 
    1.5625000000065031E-01     1.0000000000000000E+00     0.0000000000000000E+00 
    1.2500000000052031E-01     1.0000000000000000E+00     0.0000000000000000E+00 
    9.3750000000390132E-02     1.0000000000000000E+00     0.0000000000000000E+00 
    6.2500000000260125E-02     1.0000000000000000E+00     0.0000000000000000E+00 
    3.1250000000130007E-02     1.0000000000000000E+00     0.0000000000000000E+00 
    0.0000000000000000E+00     9.6874999999986700E-01     0.0000000000000000E+00 
    0.0000000000000000E+00     9.3749999999973976E-01     0.0000000000000000E+00 
    0.0000000000000000E+00     9.0624999999967670E-01     0.0000000000000000E+00 
    0.0000000000000000E+00     8.7499999999950118E-01     0.0000000000000000E+00 
    0.0000000000000000E+00     8.4374999999971556E-01     0.0000000000000000E+00 
    0.0000000000000000E+00     8.1249999999991318E-01     0.0000000000000000E+00 
    0.0000000000000000E+00     7.8125000000010270E-01     0.0000000000000000E+00 
    0.0000000000000000E+00     7.5000000000034706E-01     0.0000000000000000E+00 
    0.0000000000000000E+00     7.1875000000056688E-01     0.0000000000000000E+00 
    0.0000000000000000E+00     6.8750000000078049E-01     0.0000000000000000E+00 
    0.0000000000000000E+00     6.5625000000097422E-01     0.0000000000000000E+00 
    0.0000000000000000E+00     6.2500000000121403E-01     0.0000000000000000E+00 
    0.0000000000000000E+00     5.9375000000151579E-01     0.0000000000000000E+00 
    0.0000000000000000E+00     5.6250000000164757E-01     0.0000000000000000E+00 
    0.0000000000000000E+00     5.3125000000182365E-01     0.0000000000000000E+00 
    0.0000000000000000E+00     5.0000000000205946E-01     0.0000000000000000E+00 
    0.0000000000000000E+00     4.6875000000194023E-01     0.0000000000000000E+00 
    0.0000000000000000E+00     4.3750000000182099E-01     0.0000000000000000E+00 
    0.0000000000000000E+00     4.0625000000169093E-01     0.0000000000000000E+00 
    0.0000000000000000E+00     3.7500000000156092E-01     0.0000000000000000E+00 
    0.0000000000000000E+00     3.4375000000143069E-01     0.0000000000000000E+00 
    0.0000000000000000E+00     3.1250000000130068E-01     0.0000000000000000E+00 
    0.0000000000000000E+00     2.8125000000117062E-01     0.0000000000000000E+00 
[...]
CELL_DATA 1024 
SCALARS Pressure float 1 
LOOKUP_TABLE default 

   -1.0082016774264844E+00 
   -1.0006081524270487E+00 
   -9.9269594711046083E-01 
   -9.9258365261276993E-01 
   -9.8161976251780192E-01 
   -9.8468040020463954E-01 
   -9.7766802630425620E-01 
   -9.7336519164893720E-01 
   -9.6689870773772557E-01 
   -9.7176723679731825E-01 
   -9.6687145923148932E-01 
   -9.6173260350180989E-01 
   -9.5758257680073566E-01 
   -9.6285159364605166E-01 
   -9.5959710073193338E-01 
   -9.5426881065430591E-01 
   -9.5166935449151380E-01 
   -9.5701964946390472E-01 
   -9.5504885435339204E-01 
   -9.4969626140976782E-01 
   -9.4828246217769829E-01 
   -9.5362743061723776E-01 
   -9.5270728102034796E-01 
   -9.4737408311474081E-01 
   -9.4692570128543918E-01 
   -9.5224658432231746E-01 
   -9.5220766656385525E-01 
   -9.4689727051485606E-01 
   -9.4725204131078855E-01 
   -9.5255543391769038E-01 
   -9.5325619621824120E-01 
   -9.4795509346124651E-01 
   -9.4897225845455768E-01 
   -9.5427676135194539E-01 
   -9.5558371634005079E-01 
   -9.5026929522311099E-01 
   -9.5181123326705830E-01 
   -9.5714283691869462E-01 
   -9.5891858458579138E-01 
   -9.5356182749859819E-01 
   -9.5548308854960295E-01 
   -9.6087366176231992E-01 
   -9.6296860361261327E-01 
   -9.5753486619836992E-01 
   -9.5967447617406432E-01 
   -9.6516139074919549E-01 
   -9.6740707048404995E-01 
   -9.6185637654046652E-01 
   -9.6403192731249510E-01 
   -9.6965737612760394E-01 
   -9.7186032624016372E-01 
   -9.6614932260692576E-01 
   -9.6815390977857174E-01 
   -9.7395975068689689E-01 
   -9.7589454992513802E-01 
   -9.6998941014483964E-01 
   -9.7160132393640475E-01 
   -9.7759697580320271E-01 
   -9.7898731866571709E-01 
   -9.7294590936034153E-01 
   -9.7401480846685562E-01 
   -9.7995535450508831E-01 
   -9.8029459829236520E-01 
   -9.7493614536918938E-01 
   -9.9766758447185644E-01 
   -9.9690780116497579E-01 
   -9.9274739551852020E-01 
   -9.9244395231259963E-01 
   -9.8650948005765149E-01 
   -9.8804229992880466E-01 
   -9.8331311757249240E-01 
   -9.8078490583033529E-01 
   -9.7564499441518882E-01 
   -9.7888910813822450E-01 
   -9.7493768494767930E-01 
   -9.7119966208225206E-01 
   -9.6745116482454552E-01 
   -9.7152747692647745E-01 
   -9.6867456218220027E-01 
   -9.6436387396623358E-01 
   -9.6189219802790393E-01 
   -9.6636931703442519E-01 
   -9.6459045863778514E-01 
   -9.5999072769093208E-01 
   -9.5861727135528418E-01 
   -9.6331191273086725E-01 
   -9.6250595046071530E-01 
   -9.5773320124403905E-01 
   -9.5730287715644213E-01 
   -9.6214446260514386E-01 
   -9.6219933315982475E-01 
   -9.5729283177032265E-01 
   -9.5767096397975315E-01 
   -9.6264239154713693E-01 
   -9.6344517939230423E-01 
   -9.5840581722171669E-01 
   -9.5946595388014488E-01 
   -9.6457864359437151E-01 
   -9.6601280802086009E-01 
   -9.6081941419338568E-01 
   -9.6243324198543501E-01 
   -9.6771644407764723E-01 
   -9.6965674662874179E-01 
   -9.6427305894712811E-01 
   -9.6630267045451645E-01 
   -9.7179901212031428E-01 
   -9.7410631078967036E-01 
   -9.6848368606062585E-01 
   -9.7077513704158380E-01 
   -9.7653913781749202E-01 
   -9.7905501914013549E-01 
   -9.7313306542890776E-01 
   -9.7551004723941304E-01 
   -9.8160802896034982E-01 
   -9.8414814180641053E-01 
   -9.7785457149501731E-01 
   -9.8011010988253777E-01 
   -9.8662027288878829E-01 
   -9.8896273496230291E-01 
   -9.8221349219306275E-01 
   -9.8409167635871475E-01 
   -9.9110462108982034E-01 
   -9.9296133996846558E-01 
   -9.8565475150269533E-01 
   -9.8678029560941638E-01 
   -9.9442753102821269E-01 
   -9.9536860949004302E-01 
   -9.8727983991193258E-01 
   -9.9732539828948252E-01 
   -9.9847323180005076E-01 
   -9.9504035233689314E-01 
   -9.9364550694305598E-01 
   -9.8965485713404733E-01 
   -9.9147928793889695E-01 
   -9.8793452411745764E-01 
   -9.8562677066555482E-01 
   -9.8179028822849890E-01 
   -9.8455388857648307E-01 
   -9.8145540217964600E-01 
   -9.7829777173503041E-01 
   -9.7523610612713652E-01 
   -9.7872020794864056E-01 
   -9.7639758546207955E-01 
   -9.7264706000389922E-01 
   -9.7054436076135686E-01 
   -9.7451308198757203E-01 
   -9.7307586600142382E-01 
   -9.6892527192759481E-01 
   -9.6777768428779976E-01 
   -9.7208422828372720E-01 
   -9.7152931882572280E-01 
   -9.6708419621947239E-01 
   -9.6682434302948361E-01 
   -9.7139753451777699E-01 
   -9.7167197165792907E-01 
   -9.6697574059405511E-01 
   -9.6751460870164763E-01 
   -9.7233326412705967E-01 
   -9.7336002932358823E-01 
   -9.6841594713046308E-01 
   -9.6965351859518634E-01 
   -9.7472906882654997E-01 
   -9.7641541583379754E-01 
   -9.7119972741527438E-01 
   -9.7302543933232988E-01 
   -9.7839228853591342E-01 
   -9.8063098179763164E-01 
   -9.7509976840658974E-01 
   -9.7738984076916224E-01 
   -9.8310071966167789E-01 
   -9.8576847547236857E-01 
   -9.7986053642446169E-01 
   -9.8247420174507460E-01 
   -9.8859876239540323E-01 
   -9.9155338845792873E-01 
   -9.8519031622995679E-01 
   -9.8796508354480439E-01 
   -9.9459116393945946E-01 
   -9.9766754274197167E-01 
   -9.9075089756995338E-01 
   -9.9349560440716778E-01 
   -1.0007341788970991E+00 
   -1.0037383943646476E+00 
   -9.9614144844698571E-01 
   -9.9862358192489364E-01 
   -1.0066226213985223E+00 
   -1.0093240728184276E+00 
   -1.0008681454959945E+00 
   -1.0027905232078433E+00 
   -1.0117753504432951E+00 
   -1.0139076098058393E+00 
   -1.0042962689353006E+00 
   -1.0001395319215336E+00 
   -1.0022232452581934E+00 
   -9.9902253338454416E-01 
   -9.9684890381112479E-01 
   -9.9355981597111198E-01 
   -9.9591529595256245E-01 
   -9.9294792223354544E-01 
   -9.9035181269626593E-01 
   -9.8731881647125685E-01 
   -9.9018089256105846E-01 
   -9.8767509447810153E-01 
   -9.8454651555901274E-01 
   -9.8210210347935278E-01 
   -9.8548320926871702E-01 
   -9.8364608112853236E-01 
   -9.8003262057255514E-01 
   -9.7836745548015291E-01 
   -9.8219239955295012E-01 
   -9.8114004341018435E-01 
   -9.7712208072138074E-01 
   -9.7630158403478062E-01 
   -9.8049796897384278E-01 
   -9.8026804447750515E-01 
   -9.7590348993377618E-01 
   -9.7591981727104493E-01 
   -9.8044658275447394E-01 
   -9.8102551380831460E-01 
   -9.7633849067289835E-01 
   -9.7714426228333273E-01 
   -9.8199323243554382E-01 
   -9.8333517570579088E-01 
   -9.7831928324397521E-01 
   -9.7984343252769968E-01 
   -9.8503420099339678E-01 
   -9.8707081230895943E-01 
   -9.8169448160472328E-01 
   -9.8384814932752651E-01 
   -9.8942328172222505E-01 
   -9.9206769710126430E-01 
   -9.8627808359280567E-01 
   -9.8895579360124608E-01 
   -9.9497796029501151E-01 
   -9.9812575343627785E-01 
   -9.9185054802984429E-01 
   -9.9492924731001009E-01 
   -1.0014804866061513E+00 
   -1.0050092382514775E+00 
   -9.9815627496496029E-01 
   -1.0014933301546971E+00 
   -1.0086767003950998E+00 
   -1.0124451463854001E+00 
   -1.0048992467797173E+00 
   -1.0083298151884925E+00 
   -1.0162744521926865E+00 
   -1.0201222293514960E+00 
   -1.0117376531276889E+00 
   -1.0150722409818231E+00 
   -1.0239441759757351E+00 
   -1.0276948267641213E+00 
   -1.0182803743621560E+00 
   -1.0213075227897928E+00 
   -1.0313289785336679E+00 
   -1.0348041167319841E+00 
   -1.0241008899125190E+00 
   -1.0046804969084777E+00 
   -1.0074993424792109E+00 
   -1.0044033110688622E+00 
   -1.0015408406544379E+00 
   -9.9856146141364288E-01 
   -1.0015177069410881E+00 
   -9.9886197728166870E-01 
   -9.9577130344787457E-01 
   -9.9321050551493106E-01 
   -9.9646388041352452E-01 
   -9.9435487724959992E-01 
   -9.9092244199919421E-01 
   -9.8894754038790167E-01 
   -9.9256596309010670E-01 
   -9.9112471714205852E-01 
   -9.8731967627937323E-01 
   -9.8606475810684313E-01 
   -9.9005366562666985E-01 
   -9.8936968211083631E-01 
   -9.8520074481081144E-01 
   -9.8473840249471190E-01 
   -9.8908406872382915E-01 
   -9.8920298931692885E-01 
   -9.8468232254298627E-01 
   -9.8503192717634636E-01 
   -9.8972804145456195E-01 
   -9.9065682400970168E-01 
   -9.8578233501203949E-01 
   -9.8692504690604155E-01 
   -9.9198343692813995E-01 
   -9.9369888614726443E-01 
   -9.8844845740469101E-01 
   -9.9033821699785241E-01 
   -9.9579139299938202E-01 
   -9.9824661940715920E-01 
   -9.9257747543322217E-01 
   -9.9514703521403280E-01 
   -1.0010478252220754E+00 
   -1.0041759752244730E+00 
   -9.9802544056590969E-01 
   -1.0011890230003055E+00 
   -1.0076098127629243E+00 
   -1.0113259160358563E+00 
   -1.0046119211290867E+00 
   -1.0082660900741371E+00 
   -1.0152987523835757E+00 
   -1.0195007462859824E+00 
   -1.0121213153169752E+00 
   -1.0161452475006769E+00 
   -1.0239023785711445E+00 
   -1.0284723384724972E+00 
   -1.0203034805009390E+00 
   -1.0245597055457270E+00 
   -1.0331777570691467E+00 
   -1.0379845609153364E+00 
   -1.0288759928192881E+00 
   -1.0332132792747726E+00 
   -1.0428579969545158E+00 
   -1.0477633893619844E+00 
   -1.0375321738136107E+00 
   -1.0417942148920900E+00 
   -1.0526671843974369E+00 
   -1.0575382985003283E+00 
   -1.0459636874886615E+00 
   -1.0106868384475651E+00 
   -1.0142619590670856E+00 
   -1.0112220451791551E+00 
   -1.0076229628965789E+00 
   -1.0048083927840801E+00 
   -1.0084624311556691E+00 
   -1.0059941986508811E+00 
   -1.0022572504667817E+00 
   -9.9998969907092328E-01 
   -1.0038328204135001E+00 
   -1.0019965309395353E+00 
   -9.9802923813207067E-01 
   -9.9639995473380794E-01 
   -1.0005045184041503E+00 
   -9.9937529884447274E-01 
   -9.9512429608380304E-01 
   -9.9422157492132612E-01 
   -9.9862547887023090E-01 
   -9.9826894817453848E-01 
   -9.9370716521217128E-01 
   -9.9359222535194680E-01 
   -9.9831644987828727E-01 
   -9.9877543235034705E-01 
   -9.9388376296230030E-01 
   -9.9458488432171166E-01 
   -9.9965008356567464E-01 
   -1.0009414655533426E+00 
   -9.9569511585814541E-01 
   -9.9721072760064444E-01 
   -1.0026476894134171E+00 
   -1.0047640929956638E+00 
   -9.9912502108983092E-01 
   -1.0014285665953397E+00 
   -1.0072834006439537E+00 
   -1.0101958569432672E+00 
   -1.0041093883669863E+00 
   -1.0071531045789783E+00 
   -1.0134893348793146E+00 
   -1.0171494242736374E+00 
   -1.0105430327629035E+00 
   -1.0142602734867845E+00 
   -1.0211595097619663E+00 
   -1.0255008497002458E+00 
   -1.0182837859338010E+00 
   -1.0225904696060963E+00 
   -1.0301526687492908E+00 
   -1.0350922778678930E+00 
   -1.0271552671575099E+00 
   -1.0319513047440634E+00 
   -1.0402952362609394E+00 
   -1.0457355705924045E+00 
   -1.0369500886315675E+00 
   -1.0421217801851244E+00 
   -1.0513860673797433E+00 
   -1.0572186544984814E+00 
   -1.0474355755450020E+00 
   -1.0528602194544685E+00 
   -1.0632048859396970E+00 
   -1.0693165382562948E+00 
   -1.0583646814741197E+00 
   -1.0639190100973837E+00 
   -1.0755263141316906E+00 
   -1.0818086246579399E+00 
   -1.0694953464385279E+00 
   -1.0182514954245994E+00 
   -1.0226875733690932E+00 
   -1.0196776483333836E+00 
   -1.0152292089526003E+00 
   -1.0125124789276791E+00 
   -1.0169941684938846E+00 
   -1.0146455391988172E+00 
   -1.0101106562307085E+00 
   -1.0080363198467888E+00 
   -1.0126425897473998E+00 
   -1.0109979198116650E+00 
   -1.0063042658433854E+00 
   -1.0049303010676585E+00 
   -1.0097250786934058E+00 
   -1.0088377188125113E+00 
   -1.0039300721802200E+00 
   -1.0033180848993406E+00 
   -1.0083488336116027E+00 
   -1.0082701425588612E+00 
   -1.0031069803159569E+00 
   -1.0033070664589832E+00 
   -1.0086116417873123E+00 
   -1.0093813076686817E+00 
   -1.0039260632388656E+00 
   -1.0049690039747377E+00 
   -1.0105849239215310E+00 
   -1.0122259978465638E+00 
   -1.0064382382972010E+00 
   -1.0083334912121227E+00 
   -1.0143057338144126E+00 
   -1.0168230385000609E+00 
   -1.0106519457294778E+00 
   -1.0133883284657543E+00 
   -1.0197745399795519E+00 
   -1.0231546101906872E+00 
   -1.0165349876279364E+00 
   -1.0200819605037459E+00 
   -1.0269553867315317E+00 
   -1.0311667953349601E+00 
   -1.0240170332673848E+00 
   -1.0283257999776367E+00 
   -1.0357765786423501E+00 
   -1.0407703401782129E+00 
   -1.0329917304813223E+00 
   -1.0379962588152327E+00 
   -1.0461316147171773E+00 
   -1.0518419774545431E+00 
   -1.0433189047734654E+00 
   -1.0489374416117414E+00 
   -1.0578812043674082E+00 
   -1.0642274946586725E+00 
   -1.0548281223389657E+00 
   -1.0609659755368850E+00 
   -1.0708577629956950E+00 
   -1.0777480042595347E+00 
   -1.0673251788475513E+00 
   -1.0738795136145274E+00 
   -1.0848737267212927E+00 
   -1.0922104411619926E+00 
   -1.0806028968061931E+00 
   -1.0874699752109092E+00 
   -1.0997341838942321E+00 
   -1.1074220417811884E+00 
   -1.0944567512624075E+00 
   -1.0276061131459313E+00 
   -1.0330458471741322E+00 
   -1.0300469557935825E+00 
   -1.0246038835662044E+00 
   -1.0219454946720121E+00 
   -1.0274063600791574E+00 
   -1.0251318956916475E+00 
   -1.0196389020516554E+00 
   -1.0176939355344288E+00 
   -1.0232329034840377E+00 
   -1.0217199130521106E+00 
   -1.0161218568334887E+00 
   -1.0149347851367760E+00 
   -1.0206042265247017E+00 
   -1.0198974562816587E+00 
   -1.0141450775260801E+00 
   -1.0137647394222828E+00 
   -1.0196110668297043E+00 
   -1.0197559583564411E+00 
   -1.0138049154865560E+00 
   -1.0142754843584221E+00 
   -1.0203421133169375E+00 
   -1.0213783124449265E+00 
   -1.0151847584222724E+00 
   -1.0165392753417208E+00 
   -1.0228719154167103E+00 
   -1.0248286947490122E+00 
   -1.0183436611623373E+00 
   -1.0206005436142767E+00 
   -1.0272527089024919E+00 
   -1.0301462009959936E+00 
   -1.0233104967752082E+00 
   -1.0264720027321692E+00 
   -1.0335095119802864E+00 
   -1.0373410007425774E+00 
   -1.0300814210959222E+00 
   -1.0341329624557969E+00 
   -1.0416369678426736E+00 
   -1.0463915840578106E+00 
   -1.0386186667482502E+00 
   -1.0435283918636378E+00 
   -1.0515968293866798E+00 
   -1.0572424523818205E+00 
   -1.0488498214900273E+00 
   -1.0545685039885306E+00 
   -1.0633159632833644E+00 
   -1.0698026768719704E+00 
   -1.0606679356951920E+00 
   -1.0671297020215544E+00 
   -1.0766858215010895E+00 
   -1.0839467285464197E+00 
   -1.0739336876067964E+00 
   -1.0810583621840308E+00 
   -1.0915651107626734E+00 
   -1.0995194284749397E+00 
   -1.0884811416890243E+00 
   -1.0961788149082747E+00 
   -1.1077873297988781E+00 
   -1.1163461371389434E+00 
   -1.1041280157493711E+00 
   -1.1123057117648871E+00 
   -1.1251733403245554E+00 
   -1.1342470507877229E+00 
   -1.1206896729645071E+00 
   -1.0390476944972655E+00 
   -1.0456543661014719E+00 
   -1.0426494190712248E+00 
   -1.0360479021091309E+00 
   -1.0334182569037376E+00 
   -1.0400240564140513E+00 
   -1.0377865209230255E+00 
   -1.0311667085822780E+00 
   -1.0293024712526462E+00 
   -1.0359461705900190E+00 
   -1.0345132793829410E+00 
   -1.0278357818111121E+00 
   -1.0267775856046339E+00 
   -1.0334987880387190E+00 
   -1.0329140266014754E+00 
   -1.0261391831050004E+00 
   -1.0259318706188634E+00 
   -1.0327704298593539E+00 
   -1.0330792629087102E+00 
   -1.0261666013946948E+00 
   -1.0268536838635518E+00 
   -1.0338513682346326E+00 
   -1.0350969394189420E+00 
   -1.0280025239548163E+00 
   -1.0296214103459131E+00 
   -1.0368253210192475E+00 
   -1.0390448299811499E+00 
   -1.0317173360000416E+00 
   -1.0342958464959326E+00 
   -1.0417625913986754E+00 
   -1.0449843804893557E+00 
   -1.0373609050939081E+00 
   -1.0409147657020541E+00 
   -1.0487144631368339E+00 
   -1.0529554291082441E+00 
   -1.0449578474357297E+00 
   -1.0494886079534884E+00 
   -1.0577080149709754E+00 
   -1.0629709177795026E+00 
   -1.0545034169669549E+00 
   -1.0599964360731395E+00 
   -1.0687406057634554E+00 
   -1.0750111384207475E+00 
   -1.0659595160994002E+00 
   -1.0723821280554446E+00 
   -1.0817740152494608E+00 
   -1.0890180790233253E+00 
   -1.0792513478189814E+00 
   -1.0865519167270623E+00 
   -1.0967295045462291E+00 
   -1.1048919049691270E+00 
   -1.0942663988547183E+00 
   -1.1023754494186149E+00 
   -1.1134865822181605E+00 
   -1.1224929332493963E+00 
   -1.1108581964318256E+00 
   -1.1196927198107074E+00 
   -1.1318889987337790E+00 
   -1.1416521080392343E+00 
   -1.1288565912371755E+00 
   -1.1383274195334330E+00 
   -1.1517595419546396E+00 
   -1.1621891152559580E+00 
   -1.1480833371818735E+00 
   -1.0529101279247144E+00 
   -1.0608606766151578E+00 
   -1.0578321246188060E+00 
   -1.0498956593021793E+00 
   -1.0472678819542702E+00 
   -1.0551950464003503E+00 
   -1.0529587148057131E+00 
   -1.0450354824456554E+00 
   -1.0432081785903402E+00 
   -1.0511333952208519E+00 
   -1.0497301666037044E+00 
   -1.0417965398264173E+00 
   -1.0408117782413526E+00 
   -1.0487607348632586E+00 
   -1.0482372477338382E+00 
   -1.0402655245911381E+00 
   -1.0401696018004722E+00 
   -1.0481721161943758E+00 
   -1.0485778447084451E+00 
   -1.0405358054773288E+00 
   -1.0413756973440196E+00 
   -1.0494668704960519E+00 
   -1.0508514101971751E+00 
   -1.0427004136551996E+00 
   -1.0445204871088851E+00 
   -1.0527433104571799E+00 
   -1.0551538971941161E+00 
   -1.0468456778285626E+00 
   -1.0496848069339000E+00 
   -1.0580938167470242E+00 
   -1.0615728609372943E+00 
   -1.0530455851399096E+00 
   -1.0569344287891695E+00 
   -1.0655997675066344E+00 
   -1.0701819876804766E+00 
   -1.0613562568009056E+00 
   -1.0663142643504950E+00 
   -1.0753254140989637E+00 
   -1.0810340655556696E+00 
   -1.0718096728922828E+00 
   -1.0778414616753356E+00 
   -1.0873097305313639E+00 
   -1.0941515801245536E+00 
   -1.0844060933859054E+00 
   -1.0914972559257043E+00 
   -1.1015557732346632E+00 
   -1.1095150927287012E+00 
   -1.0991056529512158E+00 
   -1.1072188859807597E+00 
   -1.1180186694687828E+00 
   -1.1270518678161783E+00 
   -1.1158214775036772E+00 
   -1.1248950829101567E+00 
   -1.1365964145910701E+00 
   -1.1466308430985281E+00 
   -1.1344189236111999E+00 
   -1.1443704400353172E+00 
   -1.1571312831841787E+00 
   -1.1680725508462684E+00 
   -1.1547261118840684E+00 
   -1.1654623343682382E+00 
   -1.1794293857806684E+00 
   -1.1911775874843384E+00 
   -1.1765561952563748E+00 
   -1.0695531022428428E+00 
   -1.0790359264907847E+00 
   -1.0759643499585085E+00 
   -1.0665056333693770E+00 
   -1.0638520399509059E+00 
   -1.0732865580767568E+00 
   -1.0710134955202586E+00 
   -1.0616023352217314E+00 
   -1.0597675140380574E+00 
   -1.0691570858323245E+00 
   -1.0677299916103868E+00 
   -1.0583593551942279E+00 
   -1.0573902435521421E+00 
   -1.0667454354171428E+00 
   -1.0662170749169582E+00 
   -1.0568730155774257E+00 
   -1.0568208248508073E+00 
   -1.0661589159935891E+00 
   -1.0665852471698281E+00 
   -1.0572470216734333E+00 
   -1.0581650406833965E+00 
   -1.0675105818681312E+00 
   -1.0689495984757942E+00 
   -1.0595882907168683E+00 
   -1.0615300411094364E+00 
   -1.0709170703293314E+00 
   -1.0734277783093547E+00 
   -1.0640032980039311E+00 
   -1.0670206631152004E+00 
   -1.0764963979678788E+00 
   -1.0801373513849906E+00 
   -1.0705941660495664E+00 
   -1.0747350599991556E+00 
   -1.0843646116842502E+00 
   -1.0891914457722660E+00 
   -1.0794535698124195E+00 
   -1.0847585816019620E+00 
   -1.0946300789916481E+00 
   -1.1006912648793845E+00 
   -1.0906572649387871E+00 
   -1.0971546233637908E+00 
   -1.1073837455182489E+00 
   -1.1147135952125540E+00 
   -1.1042529778291352E+00 
   -1.1119514023749866E+00 
   -1.1226834554272471E+00 
   -1.1312916957531656E+00 
   -1.1202451532011590E+00 
   -1.1291251613698143E+00 
   -1.1405315773665334E+00 
   -1.1503905523915514E+00 
   -1.1385776926410498E+00 
   -1.1485843067447390E+00 
   -1.1608498974348567E+00 
   -1.1718849304242411E+00 
   -1.1591222561017702E+00 
   -1.1701654263581105E+00 
   -1.1834660539726098E+00 
   -1.1955607452367387E+00 
   -1.1816858138055717E+00 
   -1.1936553534120449E+00 
   -1.2081363218090653E+00 
   -1.2211628852709464E+00 
   -1.2060477016023350E+00 
   -1.0893592187165040E+00 
   -1.1005748103417987E+00 
   -1.0974373934036636E+00 
   -1.0862578736370303E+00 
   -1.0835475622018256E+00 
   -1.0946853665238105E+00 
   -1.0923324847116034E+00 