# vtk DataFile Version 2.0
Pressure Field Data 
ASCII 
DATASET UNSTRUCTURED_GRID 

POINTS 1089 float 

    0.0000000000000000E+00     0.0000000000000000E+00     0.0000000000000000E+00 
    1.0000000000000000E+00     0.0000000000000000E+00     0.0000000000000000E+00 
    1.0000000000000000E+00     1.0000000000000000E+00     0.0000000000000000E+00 
    0.0000000000000000E+00     1.0000000000000000E+00     0.0000000000000000E+00 
    3.1249999999941821E-02     0.0000000000000000E+00     0.0000000000000000E+00 
    6.2499999999872928E-02     0.0000000000000000E+00     0.0000000000000000E+00 
    9.3749999999823030E-02     0.0000000000000000E+00     0.0000000000000000E+00 
    1.2499999999977310E-01     0.0000000000000000E+00     0.0000000000000000E+00 
    1.5624999999968331E-01     0.0000000000000000E+00     0.0000000000000000E+00 
    1.8749999999959341E-01     0.0000000000000000E+00     0.0000000000000000E+00 
    2.1874999999950220E-01     0.0000000000000000E+00     0.0000000000000000E+00 
    2.4999999999941089E-01     0.0000000000000000E+00     0.0000000000000000E+00 
    2.8124999999931971E-01     0.0000000000000000E+00     0.0000000000000000E+00 
    3.1249999999922851E-01     0.0000000000000000E+00     0.0000000000000000E+00 
    3.4374999999913730E-01     0.0000000000000000E+00     0.0000000000000000E+00 
    3.7499999999904610E-01     0.0000000000000000E+00     0.0000000000000000E+00 
    4.0624999999895478E-01     0.0000000000000000E+00     0.0000000000000000E+00 
    4.3749999999886358E-01     0.0000000000000000E+00     0.0000000000000000E+00 
    4.6874999999877792E-01     0.0000000000000000E+00     0.0000000000000000E+00 
    4.9999999999869210E-01     0.0000000000000000E+00     0.0000000000000000E+00 
    5.3124999999876910E-01     0.0000000000000000E+00     0.0000000000000000E+00 
    5.6249999999884603E-01     0.0000000000000000E+00     0.0000000000000000E+00 
    5.9374999999892841E-01     0.0000000000000000E+00     0.0000000000000000E+00 
    6.2499999999901090E-01     0.0000000000000000E+00     0.0000000000000000E+00 
    6.5624999999909328E-01     0.0000000000000000E+00     0.0000000000000000E+00 
    6.8749999999917577E-01     0.0000000000000000E+00     0.0000000000000000E+00 
    7.1874999999925815E-01     0.0000000000000000E+00     0.0000000000000000E+00 
    7.4999999999934064E-01     0.0000000000000000E+00     0.0000000000000000E+00 
    7.8124999999942302E-01     0.0000000000000000E+00     0.0000000000000000E+00 
    8.1249999999950551E-01     0.0000000000000000E+00     0.0000000000000000E+00 
    8.4374999999958789E-01     0.0000000000000000E+00     0.0000000000000000E+00 
    8.7499999999967026E-01     0.0000000000000000E+00     0.0000000000000000E+00 
    9.0624999999975264E-01     0.0000000000000000E+00     0.0000000000000000E+00 
    9.3749999999983513E-01     0.0000000000000000E+00     0.0000000000000000E+00 
    9.6874999999991751E-01     0.0000000000000000E+00     0.0000000000000000E+00 
    1.0000000000000000E+00     3.1249999999941821E-02     0.0000000000000000E+00 
    1.0000000000000000E+00     6.2499999999872928E-02     0.0000000000000000E+00 
    1.0000000000000000E+00     9.3749999999823030E-02     0.0000000000000000E+00 
    1.0000000000000000E+00     1.2499999999977310E-01     0.0000000000000000E+00 
    1.0000000000000000E+00     1.5624999999968331E-01     0.0000000000000000E+00 
    1.0000000000000000E+00     1.8749999999959341E-01     0.0000000000000000E+00 
    1.0000000000000000E+00     2.1874999999950220E-01     0.0000000000000000E+00 
    1.0000000000000000E+00     2.4999999999941089E-01     0.0000000000000000E+00 
    1.0000000000000000E+00     2.8124999999931971E-01     0.0000000000000000E+00 
    1.0000000000000000E+00     3.1249999999922851E-01     0.0000000000000000E+00 
    1.0000000000000000E+00     3.4374999999913730E-01     0.0000000000000000E+00 
    1.0000000000000000E+00     3.7499999999904610E-01     0.0000000000000000E+00 
    1.0000000000000000E+00     4.0624999999895478E-01     0.0000000000000000E+00 
    1.0000000000000000E+00     4.3749999999886358E-01     0.0000000000000000E+00 
    1.0000000000000000E+00     4.6874999999877792E-01     0.0000000000000000E+00 
    1.0000000000000000E+00     4.9999999999869210E-01     0.0000000000000000E+00 
    1.0000000000000000E+00     5.3124999999876910E-01     0.0000000000000000E+00 
    1.0000000000000000E+00     5.6249999999884603E-01     0.0000000000000000E+00 
    1.0000000000000000E+00     5.9374999999892841E-01     0.0000000000000000E+00 
    1.0000000000000000E+00     6.2499999999901090E-01     0.0000000000000000E+00 
    1.0000000000000000E+00     6.5624999999909328E-01     0.0000000000000000E+00 
    1.0000000000000000E+00     6.8749999999917577E-01     0.0000000000000000E+00 
    1.0000000000000000E+00     7.1874999999925815E-01     0.0000000000000000E+00 
    1.0000000000000000E+00     7.4999999999934064E-01     0.0000000000000000E+00 
    1.0000000000000000E+00     7.8124999999942302E-01     0.0000000000000000E+00 
    1.0000000000000000E+00     8.1249999999950551E-01     0.0000000000000000E+00 
    1.0000000000000000E+00     8.4374999999958789E-01     0.0000000000000000E+00 
    1.0000000000000000E+00     8.7499999999967026E-01     0.0000000000000000E+00 
    1.0000000000000000E+00     9.0624999999975264E-01     0.0000000000000000E+00 
    1.0000000000000000E+00     9.3749999999983513E-01     0.0000000000000000E+00 
    1.0000000000000000E+00     9.6874999999991751E-01     0.0000000000000000E+00 
    9.6874999999986700E-01     1.0000000000000000E+00     0.0000000000000000E+00 
    9.3749999999973976E-01     1.0000000000000000E+00     0.0000000000000000E+00 
    9.0624999999967670E-01     1.0000000000000000E+00     0.0000000000000000E+00 
    8.7499999999950118E-01     1.0000000000000000E+00     0.0000000000000000E+00 
    8.4374999999971556E-01     1.0000000000000000E+00     0.0000000000000000E+00 
    8.1249999999991318E-01     1.0000000000000000E+00     0.0000000000000000E+00 
    7.8125000000010270E-01     1.0000000000000000E+00     0.0000000000000000E+00 
    7.5000000000034706E-01     1.0000000000000000E+00     0.0000000000000000E+00 
    7.1875000000056688E-01     1.0000000000000000E+00     0.0000000000000000E+00 
    6.8750000000078049E-01     1.0000000000000000E+00     0.0000000000000000E+00 
    6.5625000000097422E-01     1.0000000000000000E+00     0.0000000000000000E+00 
    6.2500000000121403E-01     1.0000000000000000E+00     0.0000000000000000E+00 
    5.9375000000151579E-01     1.0000000000000000E+00     0.0000000000000000E+00 
    5.6250000000164757E-01     1.0000000000000000E+00     0.0000000000000000E+00 
    5.3125000000182365E-01     1.0000000000000000E+00     0.0000000000000000E+00 
    5.0000000000205946E-01     1.0000000000000000E+00     0.0000000000000000E+00 
    4.6875000000194023E-01     1.0000000000000000E+00     0.0000000000000000E+00 
    4.3750000000182099E-01     1.0000000000000000E+00     0.0000000000000000E+00 
    4.0625000000169093E-01     1.0000000000000000E+00     0.0000000000000000E+00 
    3.7500000000156092E-01     1.0000000000000000E+00     0.0000000000000000E+00 
    3.4375000000143069E-01     1.0000000000000000E+00     0.0000000000000000E+00 
    3.1250000000130068E-01     1.0000000000000000E+00     0.0000000000000000E+00 
    2.8125000000117062E-01     1.0000000000000000E+00     0.0000000000000000E+00 
    2.5000000000104050E-01     1.0000000000000000E+00     0.0000000000000000E+00 
    2.1875000000091041E-01     1.0000000000000000E+00     0.0000000000000000E+00 
    1.8750000000078040E-01     1.0000000000000000E+00     0.0000000000000000E+00 
    1.5625000000065031E-01     1.0000000000000000E+00     0.0000000000000000E+00 
    1.2500000000052031E-01     1.0000000000000000E+00     0.0000000000000000E+00 
    9.3750000000390132E-02     1.0000000000000000E+00     0.0000000000000000E+00 
    6.2500000000260125E-02     1.0000000000000000E+00     0.0000000000000000E+00 
    3.1250000000130007E-02     1.0000000000000000E+00     0.0000000000000000E+00 
    0.0000000000000000E+00     9.6874999999986700E-01     0.0000000000000000E+00 
    0.0000000000000000E+00     9.3749999999973976E-01     0.0000000000000000E+00 
    0.0000000000000000E+00     9.0624999999967670E-01     0.0000000000000000E+00 
    0.0000000000000000E+00     8.7499999999950118E-01     0.0000000000000000E+00 
    0.0000000000000000E+00     8.4374999999971556E-01     0.0000000000000000E+00 
    0.0000000000000000E+00     8.1249999999991318E-01     0.0000000000000000E+00 
    0.0000000000000000E+00     7.8125000000010270E-01     0.0000000000000000E+00 
    0.0000000000000000E+00     7.5000000000034706E-01     0.0000000000000000E+00 
    0.0000000000000000E+00     7.1875000000056688E-01     0.0000000000000000E+00 
    0.0000000000000000E+00     6.8750000000078049E-01     0.0000000000000000E+00 
    0.0000000000000000E+00     6.5625000000097422E-01     0.0000000000000000E+00 
    0.0000000000000000E+00     6.2500000000121403E-01     0.0000000000000000E+00 
    0.0000000000000000E+00     5.9375000000151579E-01     0.0000000000000000E+00 
    0.0000000000000000E+00     5.6250000000164757E-01     0.0000000000000000E+00 
    0.0000000000000000E+00     5.3125000000182365E-01     0.0000000000000000E+00 
    0.0000000000000000E+00     5.0000000000205946E-01     0.0000000000000000E+00 
    0.0000000000000000E+00     4.6875000000194023E-01     0.0000000000000000E+00 
    0.0000000000000000E+00     4.3750000000182099E-01     0.0000000000000000E+00 
    0.0000000000000000E+00     4.0625000000169093E-01     0.0000000000000000E+00 
    0.0000000000000000E+00     3.7500000000156092E-01     0.0000000000000000E+00 
    0.0000000000000000E+00     3.4375000000143069E-01     0.0000000000000000E+00 
    0.0000000000000000E+00     3.1250000000130068E-01     0.0000000000000000E+00 
    0.0000000000000000E+00     2.8125000000117062E-01     0.0000000000000000E+00 
[...]
CELL_DATA 1024 
SCALARS Pressure float 1 
LOOKUP_TABLE default 

    5.4195817033718896E-01 
    5.4210479677834189E-01 
    5.4543773126411077E-01 
    5.4616374855722372E-01 
    5.4939782733098441E-01 
    5.4840119773471852E-01 
    5.5089820826223856E-01 
    5.5196147643511628E-01 
    5.5400166161787523E-01 
    5.5294369442975777E-01 
    5.5457084841682824E-01 
    5.5559924388283055E-01 
    5.5680370302873472E-01 
    5.5581043663462193E-01 
    5.5668779873194363E-01 
    5.5764830383896891E-01 
    5.5815738972976492E-01 
    5.5722370873074911E-01 
    5.5743574649180927E-01 
    5.5835021417153308E-01 
    5.5824312327199710E-01 
    5.5733946858453909E-01 
    5.5694930667125331E-01 
    5.5785089849548863E-01 
    5.5718764840536805E-01 
    5.5627925217546115E-01 
    5.5534339460988902E-01 
    5.5626744926972660E-01 
    5.5510484367969382E-01 
    5.5415636605535867E-01 
    5.5273372834688828E-01 
    5.5371525953025169E-01 
    5.5211538742657285E-01 
    5.5109232896727978E-01 
    5.4925064331221896E-01 
    5.5032354024782737E-01 
    5.4836001049676442E-01 
    5.4722911609710712E-01 
    5.4505051130160087E-01 
    5.4624743586110636E-01 
    5.4401117963254908E-01 
    5.4274027788528589E-01 
    5.4032693704692425E-01 
    5.4167972893866645E-01 
    5.3928510854404876E-01 
    5.3784249589391375E-01 
    5.3532289195589811E-01 
    5.3686329840556724E-01 
    5.3445462324320492E-01 
    5.3280847485771066E-01 
    5.3034453977116292E-01 
    5.3210403789428851E-01 
    5.2986112845858735E-01 
    5.2798196204249903E-01 
    5.2577811047057654E-01 
    5.2777939451167522E-01 
    5.2591371632506834E-01 
    5.2379868411712549E-01 
    5.2212282723869652E-01 
    5.2431307578605890E-01 
    5.2299972222735480E-01 
    5.2086020942184008E-01 
    5.2021079824052219E-01 
    5.2187983677333982E-01 
    5.4200704245712583E-01 
    5.4186727479983920E-01 
    5.4476401908943228E-01 
    5.4503210802877222E-01 
    5.4778853619358037E-01 
    5.4739203882222454E-01 
    5.4969526083650255E-01 
    5.5018242098631598E-01 
    5.5218670509257750E-01 
    5.5164440684126048E-01 
    5.5323030075743440E-01 
    5.5380394001572231E-01 
    5.5504704687578099E-01 
    5.5445505228594183E-01 
    5.5532624207592740E-01 
    5.5593146995772746E-01 
    5.5647247862706128E-01 
    5.5585383813519040E-01 
    5.5604878082903075E-01 
    5.5668451865112811E-01 
    5.5658130632259728E-01 
    5.5592244989342932E-01 
    5.5548656450298683E-01 
    5.5617615643157092E-01 
    5.5548235917825706E-01 
    5.5475328519917877E-01 
    5.5373540683626921E-01 
    5.5451354750526549E-01 
    5.5328404176290369E-01 
    5.5244659122358475E-01 
    5.5090161830306705E-01 
    5.5180917536278851E-01 
    5.5010560915259643E-01 
    5.4911664780461955E-01 
    5.4710949050891200E-01 
    5.4819164264236286E-01 
    5.4608752963338880E-01 
    5.4489989037237974E-01 
    5.4250982120832369E-01 
    5.4381580504939209E-01 
    5.4140162968207339E-01 
    5.3996380254415455E-01 
    5.3728924168129955E-01 
    5.3887316026930199E-01 
    5.3626195517706199E-01 
    5.3451681271920903E-01 
    5.3168089115363848E-01 
    5.3360343135864130E-01 
    5.3093740413208745E-01 
    5.2882007758617933E-01 
    5.2597787409930796E-01 
    5.2830877306099655E-01 
    5.2576849799479453E-01 
    5.2320363411972703E-01 
    5.2055401522415434E-01 
    5.2337520039571295E-01 
    5.2119819088052133E-01 
    5.1809534574056493E-01 
    5.1590754250757409E-01 
    5.1932381956940776E-01 
    5.1786941357416350E-01 
    5.1409014448549750E-01 
    5.1276904062044826E-01 
    5.1701271980413088E-01 
    5.4172876794188651E-01 
    5.4157796510869505E-01 
    5.4437017603243920E-01 
    5.4456056006779874E-01 
    5.4710843218450000E-01 
    5.4686433953356073E-01 
    5.4904162512924581E-01 
    5.4934078166759415E-01 
    5.5123521629405348E-01 
    5.5088609759447038E-01 
    5.5238747836491120E-01 
    5.5278036463825175E-01 
    5.5397331710717801E-01 
    5.5354107899877281E-01 
    5.5434665299438302E-01 
    5.5481663711873219E-01 
    5.5531616242787685E-01 
    5.5480716151124443E-01 
    5.5492782088555714E-01 
    5.5547966834229656E-01 
    5.5531616099666037E-01 
    5.5471548340373067E-01 
    5.5417829189622525E-01 
    5.5483556892689267E-01 
    5.5404866904299344E-01 
    5.5332553007055285E-01 
    5.5216760361950157E-01 
    5.5296714641133915E-01 
    5.5160372973117422E-01 
    5.5071610699858842E-01 
    5.4898394574980836E-01 
    5.4997237138707822E-01 
    5.4808845492807357E-01 
    5.4698549660945206E-01 
    5.4473679374571404E-01 
    5.4596902327375252E-01 
    5.4363302313570738E-01 
    5.4225573607231037E-01 
    5.3956231084629136E-01 
    5.4110156650555896E-01 
    5.3839821077708327E-01 
    5.3667883475120326E-01 
    5.3363021159786872E-01 
    5.3554926206651354E-01 
    5.3258410951653379E-01 
    5.3044421065891068E-01 
    5.2715177083586751E-01 
    5.2953560415260681E-01 
    5.2644050503311779E-01 
    5.2378733910242881E-01 
    5.2038925374477873E-01 
    5.2334003102494309E-01 
    5.2028057811735873E-01 
    5.1700018069226417E-01 
    5.1366759110693283E-01 
    5.1731468640289391E-01 
    5.1450233705682702E-01 
    5.1044420231797094E-01 
    5.0738812310776804E-01 
    5.1191252449975400E-01 
    5.0962447833365732E-01 
    5.0456202484493684E-01 
    5.0202985253584886E-01 
    5.0772616458770004E-01 
    5.4137920725035749E-01 
    5.4108762342138073E-01 
    5.4383078191199918E-01 
    5.4414363526934106E-01 
    5.4659865364276339E-01 
    5.4625520879409661E-01 
    5.4835155417038561E-01 
    5.4873177435625153E-01 
    5.5053142398539723E-01 
    5.5011086415711252E-01 
    5.5152586458907360E-01 
    5.5198898440017230E-01 
    5.5309940910976241E-01 
    5.5259160777872274E-01 
    5.5330558735483493E-01 
    5.5386098017698149E-01 
    5.5427474471252614E-01 
    5.5366755495523667E-01 
    5.5367923515237472E-01 
    5.5434394748666282E-01 
    5.5407358844799937E-01 
    5.5334405477242732E-01 
    5.5266693893441143E-01 
    5.5347013279719892E-01 
    5.5254135584434139E-01 
    5.5165418695773960E-01 
    5.5031342114223702E-01 
    5.5129629253352719E-01 
    5.4974526437591498E-01 
    5.4865359855577267E-01 
    5.4668506846176090E-01 
    5.4789996208025926E-01 
    5.4577356770632934E-01 
    5.4441966900892003E-01 
    5.4187084937267060E-01 
    5.4338090550025941E-01 
    5.4073861399786560E-01 
    5.3905381248905382E-01 
    5.3598567148414966E-01 
    5.3786533430871153E-01 
    5.3478191108554352E-01 
    5.3268561466530306E-01 
    5.2917507402925101E-01 
    5.3151160394284513E-01 
    5.2808030718334564E-01 
    5.2547789153993008E-01 
    5.2162047575521642E-01 
    5.2451677608551173E-01 
    5.2085285578980989E-01 
    5.1763193740737934E-01 
    5.1354418503272270E-01 
    5.1712370417726305E-01 
    5.1336798653285132E-01 
    5.0939194708188862E-01 
    5.0521266059825776E-01 
    5.0962798928616360E-01 
    5.0594953462035530E-01 
    5.0104612197443221E-01 
    4.9693372782645712E-01 
    5.0238145191306105E-01 
    4.9897415151193991E-01 
    4.9291705703435312E-01 
    4.8903551134648776E-01 
    4.9577659068753016E-01 
    5.4065433975121868E-01 
    5.4002874254553879E-01 
    5.4274130610007709E-01 
    5.4338053102762196E-01 
    5.4577995350062192E-01 
    5.4511988735604044E-01 
    5.4715744418356871E-01 
    5.4784481335303259E-01 
    5.4956762421520355E-01 
    5.4884724681830954E-01 
    5.5018334711407713E-01 
    5.5094198073523049E-01 
    5.5196306808781936E-01 
    5.5116094838946106E-01 
    5.5177662181058751E-01 
    5.5262787918037015E-01 
    5.5293521674022816E-01 
    5.5202838818690514E-01 
    5.5191570758274588E-01 
    5.5288558538421284E-01 
    5.5248105250749491E-01 
    5.5143943099611947E-01 
    5.5060174242666426E-01 
    5.5172512693086584E-01 
    5.5062267771488160E-01 
    5.4940612079133255E-01 
    5.4785732637834161E-01 
    5.4917989959058233E-01 
    5.4740432273853024E-01 
    5.4596141813049726E-01 
    5.4372579913471242E-01 
    5.4530486061128358E-01 
    5.4289188869434513E-01 
    5.4115928665051116E-01 
    5.3827220168518397E-01 
    5.4017734702240972E-01 
    5.3717485984386149E-01 
    5.3507647257121704E-01 
    5.3158574654640223E-01 
    5.3389986615745533E-01 
    5.3036975485172244E-01 
    5.2781550271424260E-01 
    5.2378315875026249E-01 
    5.2660399765327126E-01 
    5.2262427176214010E-01 
    5.1950816208583539E-01 
    5.1501205377562176E-01 
    5.1845456162153958E-01 
    5.1412122484828604E-01 
    5.1031848940456215E-01 
    5.0545319581607984E-01 
    5.0965300032855509E-01 
    5.0508092456155829E-01 
    5.0044383452393626E-01 
    4.9531973257444301E-01 
    5.0043810462543992E-01 
    4.9575927149773302E-01 
    4.9011143071783220E-01 
    4.8484999184623190E-01 
    4.9108000941411151E-01 
    4.8643554194275612E-01 
    4.7956602113759222E-01 
    4.7428839249760202E-01 
    4.8185899022556783E-01 
    5.3915950582665639E-01 
    5.3799506562065758E-01 
    5.4068902606486580E-01 
    5.4186137272255319E-01 
    5.4422264569256118E-01 
    5.4303631538691244E-01 
    5.4503028752739147E-01 
    5.4623660423010167E-01 
    5.4789684000671679E-01 
    5.4666458446067523E-01 
    5.4793333360262120E-01 
    5.4919755376041546E-01 
    5.5013381869868594E-01 
    5.4883134095189501E-01 
    5.4935424395882082E-01 
    5.5070176750374678E-01 
    5.5089869776289957E-01 
    5.4949861888560858E-01 
    5.4926204504941656E-01 
    5.5072311385394201E-01 
    5.5017473137915129E-01 
    5.4864314030276640E-01 
    5.4764158200127977E-01 
    5.4925446770238717E-01 
    5.4796443617801238E-01 
    5.4625812612598112E-01 
    5.4449463356261174E-01 
    5.4630795462647819E-01 
    5.4428957317298909E-01 
    5.4235410892224711E-01 
    5.3984075418556865E-01 
    5.4191512253051910E-01 
    5.3919178118445588E-01 
    5.3696003703944328E-01 
    5.3371877192527317E-01 
    5.3612815821982440E-01 
    5.3273438734420042E-01 
    5.3012521034002280E-01 
    5.2618913561960989E-01 
    5.2902222665966492E-01 
    5.2500515768347156E-01 
    5.2192195612126258E-01 
    5.1733678927556426E-01 
    5.2069847581934636E-01 
    5.1611936277142256E-01 
    5.1244852730505697E-01 
    5.0727387344970432E-01 
    5.1128692911084028E-01 
    5.0622221218525032E-01 
    5.0183133530208957E-01 
    4.9614115945652376E-01 
    5.0094811072137380E-01 
    4.9548923288532293E-01 
    4.9022518944915000E-01 
    4.8410662767507201E-01 
    4.8987162992462779E-01 
    4.8412238457016565E-01 
    4.7780968304709082E-01 
    4.7135909198117742E-01 
    4.7826902588476139E-01 
    4.7233875671533632E-01 
    4.6477951408578416E-01 
    4.5809482866577667E-01 
    4.6635751475579884E-01 
    5.3648382451773646E-01 
    5.3457421379397418E-01 
    5.3726081136113568E-01 
    5.3917266849692880E-01 
    5.4150932325505652E-01 
    5.3959034149348439E-01 
    5.4155589686223016E-01 
    5.4348706456292928E-01 
    5.4509940623421138E-01 
    5.4315074097358096E-01 
    5.4436842019075282E-01 
    5.4634024401642134E-01 
    5.4720400019324245E-01 
    5.4520287837590309E-01 
    5.4564856215722302E-01 
    5.4768574997722408E-01 
    5.4778132067256302E-01 
    5.4570051008850717E-01 
    5.4535442441196280E-01 
    5.4748736371515849E-01 
    5.4680140585883708E-01 
    5.4460672845796876E-01 
    5.4345461513783799E-01 
    5.4572188832010360E-01 
    5.4424820261540807E-01 
    5.4189609267032945E-01 
    5.3993003312907417E-01 
    5.4238073020978383E-01 
    5.4012089090409365E-01 
    5.3755622815236870E-01 
    5.3477545462115250E-01 
    5.3747120266253756E-01 
    5.3443535357513716E-01 
    5.3158955152163101E-01 
    5.2800150766155474E-01 
    5.3101828490289127E-01 
    5.2722628260405158E-01 
    5.2401555840961067E-01 
    5.1963728813770216E-01 
    5.2306707328747604E-01 
    5.1854991908658599E-01 
    5.1487373352143095E-01 
    5.0973348127106266E-01 
    5.1368570442485051E-01 
    5.0848700602106944E-01 
    5.0422675224234026E-01 
    4.9836546229578027E-01 
    5.0296813578605326E-01 
    4.9714514459509740E-01 
    4.9216324889971336E-01 
    4.8563545157572996E-01 
    4.9103577350336380E-01 
    4.8465933819840556E-01 
    4.7879903425663861E-01 
    4.7167243898727707E-01 
    4.7803653301019483E-01 
    4.7118914360788333E-01 
    4.6427536376948003E-01 
    4.5662846335453355E-01 
    4.6413966391013095E-01 
    4.5691082407662281E-01 
    4.4875298078693004E-01 
    4.4067032914442800E-01 
    4.4952505329578052E-01 
    5.3221468638862157E-01 
    5.2935366362383807E-01 
    5.3204493148403165E-01 
    5.3490203736532260E-01 
    5.3722819585454762E-01 
    5.3437176891189464E-01 
    5.3632668163984321E-01 
    5.3918599334578621E-01 
    5.4076835207579321E-01 
    5.3790217807834839E-01 
    5.3909085377123467E-01 
    5.4196837916783114E-01 
    5.4277946216532114E-01 
    5.3988547504730999E-01 
    5.4027905704703172E-01 
    5.4319535864462132E-01 
    5.4321027531062482E-01 
    5.4026493326022851E-01 
    5.3983681611675804E-01 
    5.4281893539349102E-01 
    5.4201663616412243E-01 
    5.3898885035318567E-01 
    5.3771566243002777E-01 
    5.4079930036867996E-01 
    5.3916352625118757E-01 
    5.3601241007622291E-01 
    5.3387483616506681E-01 
    5.3710664077976622E-01 
    5.3462676000917597E-01 
    5.3129933074075675E-01 
    5.2828300428165920E-01 
    5.3172285946283870E-01 
    5.2839485618209714E-01 
    5.2482377432767346E-01 
    5.2092046648048285E-01 
    5.2464370276245975E-01 
    5.2047149230271128E-01 
    5.1657292952369693E-01 
    5.1178216298982293E-01 
    5.1588157172154270E-01 
    5.1087865932830911E-01 
    5.0655045390053521E-01 
    5.0088151762363509E-01 
    5.0546896086998050E-01 
    4.9966027656136314E-01 
    4.9478063587260290E-01 
    4.8825478295240288E-01 
    4.9346208995687180E-01 
    4.8688562814598513E-01 
    4.8131272966520838E-01 
    4.7396511318627205E-01 
    4.7994388195722471E-01 
    4.7265157503294541E-01 
    4.6622446115213872E-01 
    4.5810515964054427E-01 
    4.6502507223392725E-01 
    4.5708222125565112E-01 
    4.4962335801881254E-01 
    4.4079680885152145E-01 
    4.4884212681737312E-01 
    4.4032486417872913E-01 
    4.3164464776121614E-01 
    4.2218712532704061E-01 
    4.3155114730788574E-01 
    5.2593945881382209E-01 
    5.2192018421813391E-01 
    5.2462955645536080E-01 
    5.2863799655710031E-01 
    5.3096989942106454E-01 
    5.2697127813206879E-01 
    5.2893702971396928E-01 
    5.3292728925902100E-01 
    5.3450219771590501E-01 
    5.3051830642077591E-01 
    5.3170650106283934E-01 
    5.3568664707252045E-01 
    5.3647272709078464E-01 
    5.3249297822927455E-01 
    5.3286913682631531E-01 
    5.3685266431933532E-01 
    5.3681888235531283E-01 
    5.3282646072269857E-01 
    5.3235655949282368E-01 
    5.3636405364719364E-01 
    5.3548114516902612E-01 
    5.3145120278585745E-01 
    5.3010235272849182E-01 
    5.3416346149746918E-01 
    5.3240468944744868E-01 
    5.2830219912268439E-01 
    5.2604320217728984E-01 
    5.3019894854411409E-01 
    5.2754085134443562E-01 
    5.2331814724084713E-01 
    5.2012021556680876E-01 
    5.2442557708058524E-01 
    5.2084896135348036E-01 
    5.1644307457894334E-01 
    5.1228099040231034E-01 
    5.1680760368764889E-01 
    5.1229899365514875E-01 
    5.0762896452982198E-01 
    5.0248289531706458E-01 
    5.0732165494417347E-01 
    5.0187530513483392E-01 
    4.9683976343031250E-01 
    4.9069783831214292E-01 
    4.9596102701560996E-01 
    4.8958144504700379E-01 
    4.8405690012002550E-01 
    4.7691846848661001E-01 
    4.8274089816790794E-01 
    4.7544559779811046E-01 
    4.6928602607858105E-01 
    4.6116522178062058E-01 
    4.6770375803719583E-01 
    4.5952568426846668E-01 
    4.5256403617374341E-01 
    4.4349289179209550E-01 
    4.5092380727999465E-01 
    4.4191265311410344E-01 
    4.3396469335906751E-01 
    4.2399478924074024E-01 
    4.3250874423748847E-01 
    4.2273043468171129E-01 
    4.1360085406573294E-01 
    4.0280270182964789E-01 
    4.1259768915902800E-01 
    5.1724364602614337E-01 
    5.1185722760253716E-01 
    5.1459992242009289E-01 
    5.1996765092937003E-01 
    5.2232434100396941E-01 
    5.1697716036910202E-01 
    5.1897953742592695E-01 
    5.2430489252301471E-01 
    5.2590020187244746E-01 
    5.2059727867996575E-01 
    5.2182034784967724E-01 
    5.2710097704787373E-01 
    5.2789781326172669E-01 
    5.2263852888736539E-01 
    5.2304147757848096E-01 
    5.2828124990276204E-01 
    5.2824181023762717E-01 
    5.2301874737405041E-01 
    5.2255979687523557E-01 
    5.2777002791983896E-01 
    5.2685646573309730E-01 
    5.2165398729305623E-01 
    5.2029057786358357E-01 
    5.2549173244286085E-01 
    5.2366650355230038E-01 
    5.1845872638777313E-01 
    5.1614750124380548E-01 
    5.2137155144029523E-01 
    5.1859778996838679E-01 
    5.1334591059557888E-01 
    5.1004295414055156E-01 
    5.1533633825370673E-01 
    5.1157860791717447E-01 
    5.0622770255657246E-01 
    5.0188940971488838E-01 
    5.0731641767567615E-01 
    5.0254213855002738E-01 
    4.9701766256991542E-01 
    4.9160257320420114E-01 
    4.9724887205884638E-01 
    4.9143066237500838E-01 
    4.8563501652104363E-01 
    4.7910691519045445E-01 
    4.8508274132844686E-01 
    4.7820180215920466E-01 
    4.7201157027728702E-01 
    4.6434403116389428E-01 
    4.7078629396777283E-01 
    4.6283672400342801E-01 
    4.5610149178213844E-01 
    4.4728369213223013E-01 
    4.5435594977539767E-01 
    4.4534943847869723E-01 
    4.3789329576421826E-01 
    4.2793620762851170E-01 
    4.3582546893947460E-01 
    4.2579525300424398E-01 
    4.1742179578509986E-01 
    4.0636298828543160E-01 
    4.1527296035616240E-01 
    4.0427564286085699E-01 
    3.9477623439483517E-01 
    3.8268134351493127E-01 
    3.9282306879613593E-01 
    5.0570775770215670E-01 
    4.9874135533983460E-01 
    5.0153482763115165E-01 
    5.0847349312998480E-01 
    5.1087733413911052E-01 
    5.0397187272580435E-01 
    5.0604157196118205E-01 
    5.1290919431081405E-01 
    5.1455853447667399E-01 
    5.0773249233818130E-01 
    5.0903288146341064E-01 
    5.1581450432258491E-01 
    5.1666603518873377E-01 
    5.0993077632441874E-01 
    5.1041403494154280E-01 
    5.1710188464573481E-01 
    5.1711064274750895E-01 
    5.1047031229366313E-01 
    5.1008700320171452E-01 
    5.1668071305121732E-01 
    5.1580028107245934E-01 
    5.0925117112335516E-01 
    5.0794947698904647E-01 
    5.1445728094989429E-01 
    5.1263936903901275E-01 
    5.0616811816374996E-01 
    5.0389278492827139E-01 
    5.1033391155321550E-01 
    5.0752799240099455E-01 
    5.0110864049938797E-01 
    4.9780033029556353E-01 
    5.0420844699191758E-01 
    5.0036192787134426E-01 
    4.9395202663024901E-01 
    4.8954751603548952E-01 
    4.9597500842665210E-01 
    4.9103433138504754E-01 
    4.8457033775869018E-01 
    4.7900398336716216E-01 
    4.8552680913425728E-01 
    4.7943988268239968E-01 
    4.7283216844589160E-01 
    4.6603918746520201E-01 
    4.7276184483184208E-01 
    4.6548223021705004E-01 
    4.5861036108141173E-01 
    4.5053258009161917E-01 
    4.5759226948571491E-01 
    4.4908539640257061E-01 
    4.4179494039615763E-01 
    4.3238944720870554E-01 
    4.3995778482773018E-01 
    4.3020887833273180E-01 
    4.2231174420281781E-01 
    4.1156179715803631E-01 
    4.1984186165964543E-01 
    4.0886401590174787E-01 
    4.0014444015346451E-01 
    3.8806969003646957E-01 
    3.9728690567341768E-01 
    3.8512637254332244E-01 
    3.7535276897504083E-01 
    3.6201385195689073E-01 
    3.7240235217481543E-01 
    4.9090323479611214E-01 
    4.8213743927625213E-01 
    4.8500235294702432E-01 
    4.9372957191485151E-01 
    4.9620708330826874E-01 
    4.8752845238763592E-01 
    4.8970228702100987E-01 